n -t * -s 0  -x 0 -y 0 -Z 0 -z 20  -v circle -c black
n -t * -s 1  -x 0 -y 0 -Z 0 -z 20  -v circle -c black
n -t * -s 2  -x 0 -y 0 -Z 0 -z 20  -v circle -c black
n -t * -s 3  -x 0 -y 0 -Z 0 -z 20  -v circle -c black
n -t * -s 4  -x 0 -y 0 -Z 0 -z 20  -v circle -c black
n -t * -s 5  -x 0 -y 0 -Z 0 -z 20  -v circle -c black
n -t * -s 6  -x 0 -y 0 -Z 0 -z 20  -v circle -c black
n -t * -s 7  -x 0 -y 0 -Z 0 -z 20  -v circle -c black
n -t * -s 8  -x 0 -y 0 -Z 0 -z 20  -v circle -c black
n -t * -s 9  -x 0 -y 0 -Z 0 -z 20  -v circle -c black
V -t * -v 1.0a5 -a 0
W -t * -x 520.0 -y 520.0
A -t * -n 1 -p 0 -o 0x7fffffff -c 30 -a 1
A -t * -h 1 -m 1073741823 -s 0
n -t 0.000000 -s 0 -x 355.088746 -y 355.174257 -U -0.183464 -V -0.640295 -T 533.113875
n -t 0.000000 -s 1 -x 203.873223 -y 335.812871 -U -0.112352 -V -1.058806 -T 211.855297
n -t 0.000000 -s 2 -x 256.857667 -y 258.852508 -U 0.180985 -V 0.783694 -T 243.807577
n -t 0.000000 -s 3 -x 388.021154 -y 485.540140 -U 0.526923 -V -0.001483 -T 150.620404
n -t 0.000000 -s 4 -x 472.468812 -y 101.363956 -U 0.109872 -V -0.653412 -T 82.682275
n -t 0.000000 -s 5 -x 228.164904 -y 364.394740 -U -0.523279 -V 0.561868 -T 22.631294
n -t 0.000000 -s 6 -x 330.989436 -y 106.280770 -U 0.121815 -V -1.104793 -T 50.879302
n -t 0.000000 -s 7 -x 404.572904 -y 250.738087 -U 0.425718 -V 0.902615 -T 170.531110
n -t 0.000000 -s 8 -x 256.664053 -y 249.962034 -U 0.404161 -V -0.408781 -T 170.754183
n -t 0.000000 -s 9 -x 56.014020 -y 371.244251 -U -0.857595 -V -0.205527 -T 48.024927
+ -t 1.000000000 -s 0 -d -1 -p tcp -e 40 -c 2 -a 0 -i 0 -k AGT 
- -t 1.000000000 -s 0 -d -1 -p tcp -e 40 -c 2 -a 0 -i 0 -k AGT
h -t 1.000000000 -s 0 -d -1 -p tcp -e 40 -c 2 -a 0 -i 0 -k AGT
+ -t 1.000000000 -s 0 -d -1 -p AODV -e 48 -c 2 -a 0 -i 0 -k RTR 
- -t 1.000000000 -s 0 -d -1 -p AODV -e 48 -c 2 -a 0 -i 0 -k RTR
h -t 1.000000000 -s 0 -d -1 -p AODV -e 48 -c 2 -a 0 -i 0 -k RTR
+ -t 1.000115000 -s 0 -d -1 -p AODV -e 106 -c 2 -a 0 -i 0 -k MAC 
- -t 1.000115000 -s 0 -d -1 -p AODV -e 106 -c 2 -a 0 -i 0 -k MAC
h -t 1.000115000 -s 0 -d -1 -p AODV -e 106 -c 2 -a 0 -i 0 -k MAC
r -t 1.000963381 -s 7 -d -1 -p AODV -e 48 -c 2 -a 0 -i 0 -k MAC
r -t 1.000963426 -s 5 -d -1 -p AODV -e 48 -c 2 -a 0 -i 0 -k MAC
r -t 1.000963451 -s 3 -d -1 -p AODV -e 48 -c 2 -a 0 -i 0 -k MAC
r -t 1.000963454 -s 2 -d -1 -p AODV -e 48 -c 2 -a 0 -i 0 -k MAC
r -t 1.000963478 -s 8 -d -1 -p AODV -e 48 -c 2 -a 0 -i 0 -k MAC
r -t 1.000963508 -s 1 -d -1 -p AODV -e 48 -c 2 -a 0 -i 0 -k MAC
r -t 1.000988381 -s 7 -d -1 -p AODV -e 48 -c 2 -a 0 -i 0 -k RTR
r -t 1.000988426 -s 5 -d -1 -p AODV -e 48 -c 2 -a 0 -i 0 -k RTR
r -t 1.000988451 -s 3 -d -1 -p AODV -e 48 -c 2 -a 0 -i 0 -k RTR
r -t 1.000988454 -s 2 -d -1 -p AODV -e 48 -c 2 -a 0 -i 0 -k RTR
+ -t 1.000988454 -s 2 -d 0 -p AODV -e 44 -c 2 -a 0 -i 0 -k RTR 
- -t 1.000988454 -s 2 -d 0 -p AODV -e 44 -c 2 -a 0 -i 0 -k RTR
h -t 1.000988454 -s 2 -d 0 -p AODV -e 44 -c 2 -a 0 -i 0 -k RTR
r -t 1.000988478 -s 8 -d -1 -p AODV -e 48 -c 2 -a 0 -i 0 -k RTR
r -t 1.000988508 -s 1 -d -1 -p AODV -e 48 -c 2 -a 0 -i 0 -k RTR
+ -t 1.001283454 -s 2 -d -1 -p ARP -e 86 -c 2 -a 0 -i 0 -k MAC 
- -t 1.001283454 -s 2 -d -1 -p ARP -e 86 -c 2 -a 0 -i 0 -k MAC
h -t 1.001283454 -s 2 -d -1 -p ARP -e 86 -c 2 -a 0 -i 0 -k MAC
+ -t 1.001869608 -s 7 -d -1 -p AODV -e 48 -c 2 -a 0 -i 0 -k RTR 
- -t 1.001869608 -s 7 -d -1 -p AODV -e 48 -c 2 -a 0 -i 0 -k RTR
h -t 1.001869608 -s 7 -d -1 -p AODV -e 48 -c 2 -a 0 -i 0 -k RTR
r -t 1.001971488 -s 8 -d -1 -p ARP -e 28 -c 2 -a 0 -i 0 -k MAC
r -t 1.001971761 -s 1 -d -1 -p ARP -e 28 -c 2 -a 0 -i 0 -k MAC
r -t 1.001971819 -s 5 -d -1 -p ARP -e 28 -c 2 -a 0 -i 0 -k MAC
r -t 1.001971909 -s 0 -d -1 -p ARP -e 28 -c 2 -a 0 -i 0 -k MAC
r -t 1.001971948 -s 7 -d -1 -p ARP -e 28 -c 2 -a 0 -i 0 -k MAC
r -t 1.001972025 -s 6 -d -1 -p ARP -e 28 -c 2 -a 0 -i 0 -k MAC
r -t 1.001972223 -s 9 -d -1 -p ARP -e 28 -c 2 -a 0 -i 0 -k MAC
+ -t 1.002321909 -s 0 -d -1 -p RTS -e 44 -c 2 -a 0 -i 0 -k MAC 
- -t 1.002321909 -s 0 -d -1 -p RTS -e 44 -c 2 -a 0 -i 0 -k MAC
h -t 1.002321909 -s 0 -d -1 -p RTS -e 44 -c 2 -a 0 -i 0 -k MAC
r -t 1.002674363 -s 2 -d -1 -p RTS -e 44 -c 2 -a 0 -i 0 -k MAC
+ -t 1.002684363 -s 2 -d -1 -p CTS -e 38 -c 2 -a 0 -i 0 -k MAC 
- -t 1.002684363 -s 2 -d -1 -p CTS -e 38 -c 2 -a 0 -i 0 -k MAC
h -t 1.002684363 -s 2 -d -1 -p CTS -e 38 -c 2 -a 0 -i 0 -k MAC
r -t 1.002988818 -s 0 -d -1 -p CTS -e 38 -c 2 -a 0 -i 0 -k MAC
+ -t 1.002998818 -s 0 -d -1 -p ARP -e 86 -c 2 -a 0 -i 0 -k MAC 
- -t 1.002998818 -s 0 -d -1 -p ARP -e 86 -c 2 -a 0 -i 0 -k MAC
h -t 1.002998818 -s 0 -d -1 -p ARP -e 86 -c 2 -a 0 -i 0 -k MAC
r -t 1.003687272 -s 2 -d -1 -p ARP -e 28 -c 2 -a 0 -i 0 -k MAC
+ -t 1.003697272 -s 2 -d -1 -p ACK -e 38 -c 2 -a 0 -i 0 -k MAC 
- -t 1.003697272 -s 2 -d -1 -p ACK -e 38 -c 2 -a 0 -i 0 -k MAC
h -t 1.003697272 -s 2 -d -1 -p ACK -e 38 -c 2 -a 0 -i 0 -k MAC
r -t 1.004001726 -s 0 -d -1 -p ACK -e 38 -c 2 -a 0 -i 0 -k MAC
+ -t 1.004111766 -s 7 -d -1 -p AODV -e 106 -c 2 -a 0 -i 0 -k MAC 
- -t 1.004111766 -s 7 -d -1 -p AODV -e 106 -c 2 -a 0 -i 0 -k MAC
h -t 1.004111766 -s 7 -d -1 -p AODV -e 106 -c 2 -a 0 -i 0 -k MAC
+ -t 1.004118096 -s 8 -d -1 -p AODV -e 48 -c 2 -a 0 -i 0 -k RTR 
- -t 1.004118096 -s 8 -d -1 -p AODV -e 48 -c 2 -a 0 -i 0 -k RTR
h -t 1.004118096 -s 8 -d -1 -p AODV -e 48 -c 2 -a 0 -i 0 -k RTR
r -t 1.004960147 -s 0 -d -1 -p AODV -e 48 -c 2 -a 0 -i 0 -k MAC
r -t 1.004960259 -s 8 -d -1 -p AODV -e 48 -c 2 -a 0 -i 0 -k MAC
r -t 1.004960260 -s 2 -d -1 -p AODV -e 48 -c 2 -a 0 -i 0 -k MAC
r -t 1.004960313 -s 6 -d -1 -p AODV -e 48 -c 2 -a 0 -i 0 -k MAC
r -t 1.004960317 -s 4 -d -1 -p AODV -e 48 -c 2 -a 0 -i 0 -k MAC
r -t 1.004960467 -s 5 -d -1 -p AODV -e 48 -c 2 -a 0 -i 0 -k MAC
r -t 1.004960492 -s 1 -d -1 -p AODV -e 48 -c 2 -a 0 -i 0 -k MAC
r -t 1.004960547 -s 3 -d -1 -p AODV -e 48 -c 2 -a 0 -i 0 -k MAC
r -t 1.004985147 -s 0 -d -1 -p AODV -e 48 -c 2 -a 0 -i 0 -k RTR
r -t 1.004985259 -s 8 -d -1 -p AODV -e 48 -c 2 -a 0 -i 0 -k RTR
r -t 1.004985260 -s 2 -d -1 -p AODV -e 48 -c 2 -a 0 -i 0 -k RTR
r -t 1.004985313 -s 6 -d -1 -p AODV -e 48 -c 2 -a 0 -i 0 -k RTR
r -t 1.004985317 -s 4 -d -1 -p AODV -e 48 -c 2 -a 0 -i 0 -k RTR
r -t 1.004985467 -s 5 -d -1 -p AODV -e 48 -c 2 -a 0 -i 0 -k RTR
r -t 1.004985492 -s 1 -d -1 -p AODV -e 48 -c 2 -a 0 -i 0 -k RTR
r -t 1.004985547 -s 3 -d -1 -p AODV -e 48 -c 2 -a 0 -i 0 -k RTR
+ -t 1.005190260 -s 2 -d -1 -p RTS -e 44 -c 2 -a 0 -i 0 -k MAC 
- -t 1.005190260 -s 2 -d -1 -p RTS -e 44 -c 2 -a 0 -i 0 -k MAC
h -t 1.005190260 -s 2 -d -1 -p RTS -e 44 -c 2 -a 0 -i 0 -k MAC
+ -t 1.005400159 -s 5 -d -1 -p AODV -e 48 -c 2 -a 0 -i 0 -k RTR 
- -t 1.005400159 -s 5 -d -1 -p AODV -e 48 -c 2 -a 0 -i 0 -k RTR
h -t 1.005400159 -s 5 -d -1 -p AODV -e 48 -c 2 -a 0 -i 0 -k RTR
r -t 1.005542714 -s 0 -d -1 -p RTS -e 44 -c 2 -a 0 -i 0 -k MAC
+ -t 1.005552714 -s 0 -d -1 -p CTS -e 38 -c 2 -a 0 -i 0 -k MAC 
- -t 1.005552714 -s 0 -d -1 -p CTS -e 38 -c 2 -a 0 -i 0 -k MAC
h -t 1.005552714 -s 0 -d -1 -p CTS -e 38 -c 2 -a 0 -i 0 -k MAC
r -t 1.005857169 -s 2 -d -1 -p CTS -e 38 -c 2 -a 0 -i 0 -k MAC
+ -t 1.005867169 -s 2 -d 0 -p AODV -e 102 -c 2 -a 0 -i 0 -k MAC 
- -t 1.005867169 -s 2 -d 0 -p AODV -e 102 -c 2 -a 0 -i 0 -k MAC
h -t 1.005867169 -s 2 -d 0 -p AODV -e 102 -c 2 -a 0 -i 0 -k MAC
+ -t 1.006123395 -s 6 -d -1 -p AODV -e 48 -c 2 -a 0 -i 0 -k RTR 
- -t 1.006123395 -s 6 -d -1 -p AODV -e 48 -c 2 -a 0 -i 0 -k RTR
h -t 1.006123395 -s 6 -d -1 -p AODV -e 48 -c 2 -a 0 -i 0 -k RTR
r -t 1.006683623 -s 0 -d 0 -p AODV -e 44 -c 2 -a 0 -i 0 -k MAC
+ -t 1.006693623 -s 0 -d -1 -p ACK -e 38 -c 2 -a 0 -i 0 -k MAC 
- -t 1.006693623 -s 0 -d -1 -p ACK -e 38 -c 2 -a 0 -i 0 -k MAC
h -t 1.006693623 -s 0 -d -1 -p ACK -e 38 -c 2 -a 0 -i 0 -k MAC
+ -t 1.006708623 -s 0 -d 2 -p tcp -e 40 -c 2 -a 0 -i 0 -k RTR 
- -t 1.006708623 -s 0 -d 2 -p tcp -e 40 -c 2 -a 0 -i 0 -k RTR
h -t 1.006708623 -s 0 -d 2 -p tcp -e 40 -c 2 -a 0 -i 0 -k RTR
r -t 1.006998077 -s 2 -d -1 -p ACK -e 38 -c 2 -a 0 -i 0 -k MAC
+ -t 1.007208049 -s 5 -d -1 -p AODV -e 106 -c 2 -a 0 -i 0 -k MAC 
- -t 1.007208049 -s 5 -d -1 -p AODV -e 106 -c 2 -a 0 -i 0 -k MAC
h -t 1.007208049 -s 5 -d -1 -p AODV -e 106 -c 2 -a 0 -i 0 -k MAC
r -t 1.008056177 -s 1 -d -1 -p AODV -e 48 -c 2 -a 0 -i 0 -k MAC
r -t 1.008056413 -s 2 -d -1 -p AODV -e 48 -c 2 -a 0 -i 0 -k MAC
r -t 1.008056446 -s 8 -d -1 -p AODV -e 48 -c 2 -a 0 -i 0 -k MAC
r -t 1.008056474 -s 0 -d -1 -p AODV -e 48 -c 2 -a 0 -i 0 -k MAC
r -t 1.008056624 -s 9 -d -1 -p AODV -e 48 -c 2 -a 0 -i 0 -k MAC
r -t 1.008056719 -s 3 -d -1 -p AODV -e 48 -c 2 -a 0 -i 0 -k MAC
r -t 1.008056750 -s 7 -d -1 -p AODV -e 48 -c 2 -a 0 -i 0 -k MAC
r -t 1.008081177 -s 1 -d -1 -p AODV -e 48 -c 2 -a 0 -i 0 -k RTR
r -t 1.008081413 -s 2 -d -1 -p AODV -e 48 -c 2 -a 0 -i 0 -k RTR
r -t 1.008081446 -s 8 -d -1 -p AODV -e 48 -c 2 -a 0 -i 0 -k RTR
r -t 1.008081474 -s 0 -d -1 -p AODV -e 48 -c 2 -a 0 -i 0 -k RTR
r -t 1.008081624 -s 9 -d -1 -p AODV -e 48 -c 2 -a 0 -i 0 -k RTR
r -t 1.008081719 -s 3 -d -1 -p AODV -e 48 -c 2 -a 0 -i 0 -k RTR
r -t 1.008081750 -s 7 -d -1 -p AODV -e 48 -c 2 -a 0 -i 0 -k RTR
+ -t 1.008286474 -s 0 -d -1 -p RTS -e 44 -c 2 -a 0 -i 0 -k MAC 
- -t 1.008286474 -s 0 -d -1 -p RTS -e 44 -c 2 -a 0 -i 0 -k MAC
h -t 1.008286474 -s 0 -d -1 -p RTS -e 44 -c 2 -a 0 -i 0 -k MAC
r -t 1.008638929 -s 2 -d -1 -p RTS -e 44 -c 2 -a 0 -i 0 -k MAC
+ -t 1.008648929 -s 2 -d -1 -p CTS -e 38 -c 2 -a 0 -i 0 -k MAC 
- -t 1.008648929 -s 2 -d -1 -p CTS -e 38 -c 2 -a 0 -i 0 -k MAC
h -t 1.008648929 -s 2 -d -1 -p CTS -e 38 -c 2 -a 0 -i 0 -k MAC
r -t 1.008953383 -s 0 -d -1 -p CTS -e 38 -c 2 -a 0 -i 0 -k MAC
+ -t 1.008963383 -s 0 -d 2 -p tcp -e 98 -c 2 -a 0 -i 0 -k MAC 
- -t 1.008963383 -s 0 -d 2 -p tcp -e 98 -c 2 -a 0 -i 0 -k MAC
h -t 1.008963383 -s 0 -d 2 -p tcp -e 98 -c 2 -a 0 -i 0 -k MAC
+ -t 1.008980005 -s 3 -d -1 -p AODV -e 48 -c 2 -a 0 -i 0 -k RTR 
- -t 1.008980005 -s 3 -d -1 -p AODV -e 48 -c 2 -a 0 -i 0 -k RTR
h -t 1.008980005 -s 3 -d -1 -p AODV -e 48 -c 2 -a 0 -i 0 -k RTR
+ -t 1.009153269 -s 1 -d -1 -p AODV -e 48 -c 2 -a 0 -i 0 -k RTR 
- -t 1.009153269 -s 1 -d -1 -p AODV -e 48 -c 2 -a 0 -i 0 -k RTR
h -t 1.009153269 -s 1 -d -1 -p AODV -e 48 -c 2 -a 0 -i 0 -k RTR
r -t 1.009747837 -s 2 -d 2 -p tcp -e 40 -c 2 -a 0 -i 0 -k MAC
+ -t 1.009757837 -s 2 -d -1 -p ACK -e 38 -c 2 -a 0 -i 0 -k MAC 
- -t 1.009757837 -s 2 -d -1 -p ACK -e 38 -c 2 -a 0 -i 0 -k MAC
h -t 1.009757837 -s 2 -d -1 -p ACK -e 38 -c 2 -a 0 -i 0 -k MAC
r -t 1.009772837 -s 2 -d 2 -p tcp -e 40 -c 2 -a 0 -i 0 -k AGT
+ -t 1.009772837 -s 2 -d -1 -p ack -e 40 -c 2 -a 0 -i 1 -k AGT 
- -t 1.009772837 -s 2 -d -1 -p ack -e 40 -c 2 -a 0 -i 1 -k AGT
h -t 1.009772837 -s 2 -d -1 -p ack -e 40 -c 2 -a 0 -i 1 -k AGT
+ -t 1.009772837 -s 2 -d 0 -p ack -e 40 -c 2 -a 0 -i 1 -k RTR 
- -t 1.009772837 -s 2 -d 0 -p ack -e 40 -c 2 -a 0 -i 1 -k RTR
h -t 1.009772837 -s 2 -d 0 -p ack -e 40 -c 2 -a 0 -i 1 -k RTR
r -t 1.010062292 -s 0 -d -1 -p ACK -e 38 -c 2 -a 0 -i 0 -k MAC
+ -t 1.010131871 -s 8 -d -1 -p AODV -e 106 -c 2 -a 0 -i 0 -k MAC 
- -t 1.010131871 -s 8 -d -1 -p AODV -e 106 -c 2 -a 0 -i 0 -k MAC
h -t 1.010131871 -s 8 -d -1 -p AODV -e 106 -c 2 -a 0 -i 0 -k MAC
+ -t 1.010662503 -s 9 -d -1 -p AODV -e 48 -c 2 -a 0 -i 0 -k RTR 
- -t 1.010662503 -s 9 -d -1 -p AODV -e 48 -c 2 -a 0 -i 0 -k RTR
h -t 1.010662503 -s 9 -d -1 -p AODV -e 48 -c 2 -a 0 -i 0 -k RTR
r -t 1.010979905 -s 2 -d -1 -p AODV -e 48 -c 2 -a 0 -i 0 -k MAC
r -t 1.010980206 -s 1 -d -1 -p AODV -e 48 -c 2 -a 0 -i 0 -k MAC
r -t 1.010980268 -s 5 -d -1 -p AODV -e 48 -c 2 -a 0 -i 0 -k MAC
r -t 1.010980349 -s 0 -d -1 -p AODV -e 48 -c 2 -a 0 -i 0 -k MAC
r -t 1.010980364 -s 7 -d -1 -p AODV -e 48 -c 2 -a 0 -i 0 -k MAC
r -t 1.010980412 -s 6 -d -1 -p AODV -e 48 -c 2 -a 0 -i 0 -k MAC
r -t 1.010980657 -s 9 -d -1 -p AODV -e 48 -c 2 -a 0 -i 0 -k MAC
r -t 1.011004905 -s 2 -d -1 -p AODV -e 48 -c 2 -a 0 -i 0 -k RTR
r -t 1.011005206 -s 1 -d -1 -p AODV -e 48 -c 2 -a 0 -i 0 -k RTR
r -t 1.011005268 -s 5 -d -1 -p AODV -e 48 -c 2 -a 0 -i 0 -k RTR
r -t 1.011005349 -s 0 -d -1 -p AODV -e 48 -c 2 -a 0 -i 0 -k RTR
r -t 1.011005364 -s 7 -d -1 -p AODV -e 48 -c 2 -a 0 -i 0 -k RTR
r -t 1.011005412 -s 6 -d -1 -p AODV -e 48 -c 2 -a 0 -i 0 -k RTR
r -t 1.011005657 -s 9 -d -1 -p AODV -e 48 -c 2 -a 0 -i 0 -k RTR
+ -t 1.011250206 -s 1 -d -1 -p AODV -e 106 -c 2 -a 0 -i 0 -k MAC 
- -t 1.011250206 -s 1 -d -1 -p AODV -e 106 -c 2 -a 0 -i 0 -k MAC
h -t 1.011250206 -s 1 -d -1 -p AODV -e 106 -c 2 -a 0 -i 0 -k MAC
r -t 1.012098334 -s 5 -d -1 -p AODV -e 48 -c 2 -a 0 -i 0 -k MAC
r -t 1.012098513 -s 2 -d -1 -p AODV -e 48 -c 2 -a 0 -i 0 -k MAC
r -t 1.012098541 -s 8 -d -1 -p AODV -e 48 -c 2 -a 0 -i 0 -k MAC
r -t 1.012098714 -s 0 -d -1 -p AODV -e 48 -c 2 -a 0 -i 0 -k MAC
r -t 1.012098716 -s 9 -d -1 -p AODV -e 48 -c 2 -a 0 -i 0 -k MAC
r -t 1.012098932 -s 7 -d -1 -p AODV -e 48 -c 2 -a 0 -i 0 -k MAC
r -t 1.012099001 -s 3 -d -1 -p AODV -e 48 -c 2 -a 0 -i 0 -k MAC
r -t 1.012123334 -s 5 -d -1 -p AODV -e 48 -c 2 -a 0 -i 0 -k RTR
r -t 1.012123513 -s 2 -d -1 -p AODV -e 48 -c 2 -a 0 -i 0 -k RTR
r -t 1.012123541 -s 8 -d -1 -p AODV -e 48 -c 2 -a 0 -i 0 -k RTR
r -t 1.012123714 -s 0 -d -1 -p AODV -e 48 -c 2 -a 0 -i 0 -k RTR
r -t 1.012123716 -s 9 -d -1 -p AODV -e 48 -c 2 -a 0 -i 0 -k RTR
r -t 1.012123932 -s 7 -d -1 -p AODV -e 48 -c 2 -a 0 -i 0 -k RTR
r -t 1.012124001 -s 3 -d -1 -p AODV -e 48 -c 2 -a 0 -i 0 -k RTR
+ -t 1.012169001 -s 3 -d -1 -p AODV -e 106 -c 2 -a 0 -i 0 -k MAC 
- -t 1.012169001 -s 3 -d -1 -p AODV -e 106 -c 2 -a 0 -i 0 -k MAC
h -t 1.012169001 -s 3 -d -1 -p AODV -e 106 -c 2 -a 0 -i 0 -k MAC
r -t 1.013017452 -s 0 -d -1 -p AODV -e 48 -c 2 -a 0 -i 0 -k MAC
r -t 1.013017671 -s 5 -d -1 -p AODV -e 48 -c 2 -a 0 -i 0 -k MAC
r -t 1.013017783 -s 7 -d -1 -p AODV -e 48 -c 2 -a 0 -i 0 -k MAC
r -t 1.013017796 -s 1 -d -1 -p AODV -e 48 -c 2 -a 0 -i 0 -k MAC
r -t 1.013042452 -s 0 -d -1 -p AODV -e 48 -c 2 -a 0 -i 0 -k RTR
r -t 1.013042671 -s 5 -d -1 -p AODV -e 48 -c 2 -a 0 -i 0 -k RTR
r -t 1.013042783 -s 7 -d -1 -p AODV -e 48 -c 2 -a 0 -i 0 -k RTR
r -t 1.013042796 -s 1 -d -1 -p AODV -e 48 -c 2 -a 0 -i 0 -k RTR
+ -t 1.013582594 -s 4 -d -1 -p AODV -e 48 -c 2 -a 0 -i 0 -k RTR 
- -t 1.013582594 -s 4 -d -1 -p AODV -e 48 -c 2 -a 0 -i 0 -k RTR
h -t 1.013582594 -s 4 -d -1 -p AODV -e 48 -c 2 -a 0 -i 0 -k RTR
+ -t 1.013611872 -s 2 -d -1 -p RTS -e 44 -c 2 -a 0 -i 0 -k MAC 
- -t 1.013611872 -s 2 -d -1 -p RTS -e 44 -c 2 -a 0 -i 0 -k MAC
h -t 1.013611872 -s 2 -d -1 -p RTS -e 44 -c 2 -a 0 -i 0 -k MAC
r -t 1.013964327 -s 0 -d -1 -p RTS -e 44 -c 2 -a 0 -i 0 -k MAC
+ -t 1.013974327 -s 0 -d -1 -p CTS -e 38 -c 2 -a 0 -i 0 -k MAC 
- -t 1.013974327 -s 0 -d -1 -p CTS -e 38 -c 2 -a 0 -i 0 -k MAC
h -t 1.013974327 -s 0 -d -1 -p CTS -e 38 -c 2 -a 0 -i 0 -k MAC
r -t 1.014278781 -s 2 -d -1 -p CTS -e 38 -c 2 -a 0 -i 0 -k MAC
+ -t 1.014288781 -s 2 -d 0 -p ack -e 98 -c 2 -a 0 -i 1 -k MAC 
- -t 1.014288781 -s 2 -d 0 -p ack -e 98 -c 2 -a 0 -i 1 -k MAC
h -t 1.014288781 -s 2 -d 0 -p ack -e 98 -c 2 -a 0 -i 1 -k MAC
r -t 1.015073235 -s 0 -d 0 -p ack -e 40 -c 2 -a 0 -i 1 -k MAC
+ -t 1.015083235 -s 0 -d -1 -p ACK -e 38 -c 2 -a 0 -i 0 -k MAC 
- -t 1.015083235 -s 0 -d -1 -p ACK -e 38 -c 2 -a 0 -i 0 -k MAC
h -t 1.015083235 -s 0 -d -1 -p ACK -e 38 -c 2 -a 0 -i 0 -k MAC
r -t 1.015098235 -s 0 -d 0 -p ack -e 40 -c 2 -a 0 -i 1 -k AGT
+ -t 1.015098235 -s 0 -d -1 -p tcp -e 1540 -c 2 -a 0 -i 2 -k AGT 
- -t 1.015098235 -s 0 -d -1 -p tcp -e 1540 -c 2 -a 0 -i 2 -k AGT
h -t 1.015098235 -s 0 -d -1 -p tcp -e 1540 -c 2 -a 0 -i 2 -k AGT
+ -t 1.015098235 -s 0 -d -1 -p tcp -e 1540 -c 2 -a 0 -i 3 -k AGT 
- -t 1.015098235 -s 0 -d -1 -p tcp -e 1540 -c 2 -a 0 -i 3 -k AGT
h -t 1.015098235 -s 0 -d -1 -p tcp -e 1540 -c 2 -a 0 -i 3 -k AGT
+ -t 1.015098235 -s 0 -d 2 -p tcp -e 1540 -c 2 -a 0 -i 2 -k RTR 
- -t 1.015098235 -s 0 -d 2 -p tcp -e 1540 -c 2 -a 0 -i 2 -k RTR
h -t 1.015098235 -s 0 -d 2 -p tcp -e 1540 -c 2 -a 0 -i 2 -k RTR
+ -t 1.015098235 -s 0 -d 2 -p tcp -e 1540 -c 2 -a 0 -i 3 -k RTR 
- -t 1.015098235 -s 0 -d 2 -p tcp -e 1540 -c 2 -a 0 -i 3 -k RTR
h -t 1.015098235 -s 0 -d 2 -p tcp -e 1540 -c 2 -a 0 -i 3 -k RTR
r -t 1.015387690 -s 2 -d -1 -p ACK -e 38 -c 2 -a 0 -i 0 -k MAC
+ -t 1.015737235 -s 0 -d -1 -p RTS -e 44 -c 2 -a 0 -i 0 -k MAC 
- -t 1.015737235 -s 0 -d -1 -p RTS -e 44 -c 2 -a 0 -i 0 -k MAC
h -t 1.015737235 -s 0 -d -1 -p RTS -e 44 -c 2 -a 0 -i 0 -k MAC
r -t 1.016089690 -s 2 -d -1 -p RTS -e 44 -c 2 -a 0 -i 0 -k MAC
+ -t 1.016099690 -s 2 -d -1 -p CTS -e 38 -c 2 -a 0 -i 0 -k MAC 
- -t 1.016099690 -s 2 -d -1 -p CTS -e 38 -c 2 -a 0 -i 0 -k MAC
h -t 1.016099690 -s 2 -d -1 -p CTS -e 38 -c 2 -a 0 -i 0 -k MAC
r -t 1.016404144 -s 0 -d -1 -p CTS -e 38 -c 2 -a 0 -i 0 -k MAC
+ -t 1.016414144 -s 0 -d 2 -p tcp -e 1598 -c 2 -a 0 -i 2 -k MAC 
- -t 1.016414144 -s 0 -d 2 -p tcp -e 1598 -c 2 -a 0 -i 2 -k MAC
h -t 1.016414144 -s 0 -d 2 -p tcp -e 1598 -c 2 -a 0 -i 2 -k MAC
r -t 1.029198598 -s 2 -d 2 -p tcp -e 1540 -c 2 -a 0 -i 2 -k MAC
+ -t 1.029208598 -s 2 -d -1 -p ACK -e 38 -c 2 -a 0 -i 0 -k MAC 
- -t 1.029208598 -s 2 -d -1 -p ACK -e 38 -c 2 -a 0 -i 0 -k MAC
h -t 1.029208598 -s 2 -d -1 -p ACK -e 38 -c 2 -a 0 -i 0 -k MAC
r -t 1.029223598 -s 2 -d 2 -p tcp -e 1540 -c 2 -a 0 -i 2 -k AGT
+ -t 1.029223598 -s 2 -d -1 -p ack -e 40 -c 2 -a 0 -i 4 -k AGT 
- -t 1.029223598 -s 2 -d -1 -p ack -e 40 -c 2 -a 0 -i 4 -k AGT
h -t 1.029223598 -s 2 -d -1 -p ack -e 40 -c 2 -a 0 -i 4 -k AGT
+ -t 1.029223598 -s 2 -d 0 -p ack -e 40 -c 2 -a 0 -i 4 -k RTR 
- -t 1.029223598 -s 2 -d 0 -p ack -e 40 -c 2 -a 0 -i 4 -k RTR
h -t 1.029223598 -s 2 -d 0 -p ack -e 40 -c 2 -a 0 -i 4 -k RTR
r -t 1.029513053 -s 0 -d -1 -p ACK -e 38 -c 2 -a 0 -i 0 -k MAC
+ -t 1.029642598 -s 2 -d -1 -p RTS -e 44 -c 2 -a 0 -i 0 -k MAC 
- -t 1.029642598 -s 2 -d -1 -p RTS -e 44 -c 2 -a 0 -i 0 -k MAC
h -t 1.029642598 -s 2 -d -1 -p RTS -e 44 -c 2 -a 0 -i 0 -k MAC
r -t 1.029995053 -s 0 -d -1 -p RTS -e 44 -c 2 -a 0 -i 0 -k MAC
+ -t 1.030005053 -s 0 -d -1 -p CTS -e 38 -c 2 -a 0 -i 0 -k MAC 
- -t 1.030005053 -s 0 -d -1 -p CTS -e 38 -c 2 -a 0 -i 0 -k MAC
h -t 1.030005053 -s 0 -d -1 -p CTS -e 38 -c 2 -a 0 -i 0 -k MAC
r -t 1.030309507 -s 2 -d -1 -p CTS -e 38 -c 2 -a 0 -i 0 -k MAC
+ -t 1.030319507 -s 2 -d 0 -p ack -e 98 -c 2 -a 0 -i 4 -k MAC 
- -t 1.030319507 -s 2 -d 0 -p ack -e 98 -c 2 -a 0 -i 4 -k MAC
h -t 1.030319507 -s 2 -d 0 -p ack -e 98 -c 2 -a 0 -i 4 -k MAC
r -t 1.031103961 -s 0 -d 0 -p ack -e 40 -c 2 -a 0 -i 4 -k MAC
+ -t 1.031113961 -s 0 -d -1 -p ACK -e 38 -c 2 -a 0 -i 0 -k MAC 
- -t 1.031113961 -s 0 -d -1 -p ACK -e 38 -c 2 -a 0 -i 0 -k MAC
h -t 1.031113961 -s 0 -d -1 -p ACK -e 38 -c 2 -a 0 -i 0 -k MAC
r -t 1.031128961 -s 0 -d 0 -p ack -e 40 -c 2 -a 0 -i 4 -k AGT
+ -t 1.031128961 -s 0 -d -1 -p tcp -e 1540 -c 2 -a 0 -i 5 -k AGT 
- -t 1.031128961 -s 0 -d -1 -p tcp -e 1540 -c 2 -a 0 -i 5 -k AGT
h -t 1.031128961 -s 0 -d -1 -p tcp -e 1540 -c 2 -a 0 -i 5 -k AGT
+ -t 1.031128961 -s 0 -d -1 -p tcp -e 1540 -c 2 -a 0 -i 6 -k AGT 
- -t 1.031128961 -s 0 -d -1 -p tcp -e 1540 -c 2 -a 0 -i 6 -k AGT
h -t 1.031128961 -s 0 -d -1 -p tcp -e 1540 -c 2 -a 0 -i 6 -k AGT
+ -t 1.031128961 -s 0 -d 2 -p tcp -e 1540 -c 2 -a 0 -i 5 -k RTR 
- -t 1.031128961 -s 0 -d 2 -p tcp -e 1540 -c 2 -a 0 -i 5 -k RTR
h -t 1.031128961 -s 0 -d 2 -p tcp -e 1540 -c 2 -a 0 -i 5 -k RTR
+ -t 1.031128961 -s 0 -d 2 -p tcp -e 1540 -c 2 -a 0 -i 6 -k RTR 
- -t 1.031128961 -s 0 -d 2 -p tcp -e 1540 -c 2 -a 0 -i 6 -k RTR
h -t 1.031128961 -s 0 -d 2 -p tcp -e 1540 -c 2 -a 0 -i 6 -k RTR
r -t 1.031418415 -s 2 -d -1 -p ACK -e 38 -c 2 -a 0 -i 0 -k MAC
+ -t 1.031547961 -s 0 -d -1 -p RTS -e 44 -c 2 -a 0 -i 0 -k MAC 
- -t 1.031547961 -s 0 -d -1 -p RTS -e 44 -c 2 -a 0 -i 0 -k MAC
h -t 1.031547961 -s 0 -d -1 -p RTS -e 44 -c 2 -a 0 -i 0 -k MAC
r -t 1.031900415 -s 2 -d -1 -p RTS -e 44 -c 2 -a 0 -i 0 -k MAC
+ -t 1.031910415 -s 2 -d -1 -p CTS -e 38 -c 2 -a 0 -i 0 -k MAC 
- -t 1.031910415 -s 2 -d -1 -p CTS -e 38 -c 2 -a 0 -i 0 -k MAC
h -t 1.031910415 -s 2 -d -1 -p CTS -e 38 -c 2 -a 0 -i 0 -k MAC
r -t 1.032214870 -s 0 -d -1 -p CTS -e 38 -c 2 -a 0 -i 0 -k MAC
+ -t 1.032224870 -s 0 -d 2 -p tcp -e 1598 -c 2 -a 0 -i 3 -k MAC 
- -t 1.032224870 -s 0 -d 2 -p tcp -e 1598 -c 2 -a 0 -i 3 -k MAC
h -t 1.032224870 -s 0 -d 2 -p tcp -e 1598 -c 2 -a 0 -i 3 -k MAC
r -t 1.045009324 -s 2 -d 2 -p tcp -e 1540 -c 2 -a 0 -i 3 -k MAC
+ -t 1.045019324 -s 2 -d -1 -p ACK -e 38 -c 2 -a 0 -i 0 -k MAC 
- -t 1.045019324 -s 2 -d -1 -p ACK -e 38 -c 2 -a 0 -i 0 -k MAC
h -t 1.045019324 -s 2 -d -1 -p ACK -e 38 -c 2 -a 0 -i 0 -k MAC
r -t 1.045034324 -s 2 -d 2 -p tcp -e 1540 -c 2 -a 0 -i 3 -k AGT
+ -t 1.045034324 -s 2 -d -1 -p ack -e 40 -c 2 -a 0 -i 7 -k AGT 
- -t 1.045034324 -s 2 -d -1 -p ack -e 40 -c 2 -a 0 -i 7 -k AGT
h -t 1.045034324 -s 2 -d -1 -p ack -e 40 -c 2 -a 0 -i 7 -k AGT
+ -t 1.045034324 -s 2 -d 0 -p ack -e 40 -c 2 -a 0 -i 7 -k RTR 
- -t 1.045034324 -s 2 -d 0 -p ack -e 40 -c 2 -a 0 -i 7 -k RTR
h -t 1.045034324 -s 2 -d 0 -p ack -e 40 -c 2 -a 0 -i 7 -k RTR
r -t 1.045323778 -s 0 -d -1 -p ACK -e 38 -c 2 -a 0 -i 0 -k MAC
+ -t 1.045393324 -s 2 -d -1 -p RTS -e 44 -c 2 -a 0 -i 0 -k MAC 
- -t 1.045393324 -s 2 -d -1 -p RTS -e 44 -c 2 -a 0 -i 0 -k MAC
h -t 1.045393324 -s 2 -d -1 -p RTS -e 44 -c 2 -a 0 -i 0 -k MAC
r -t 1.045745778 -s 0 -d -1 -p RTS -e 44 -c 2 -a 0 -i 0 -k MAC
+ -t 1.045755778 -s 0 -d -1 -p CTS -e 38 -c 2 -a 0 -i 0 -k MAC 
- -t 1.045755778 -s 0 -d -1 -p CTS -e 38 -c 2 -a 0 -i 0 -k MAC
h -t 1.045755778 -s 0 -d -1 -p CTS -e 38 -c 2 -a 0 -i 0 -k MAC
r -t 1.046060232 -s 2 -d -1 -p CTS -e 38 -c 2 -a 0 -i 0 -k MAC
+ -t 1.046070232 -s 2 -d 0 -p ack -e 98 -c 2 -a 0 -i 7 -k MAC 
- -t 1.046070232 -s 2 -d 0 -p ack -e 98 -c 2 -a 0 -i 7 -k MAC
h -t 1.046070232 -s 2 -d 0 -p ack -e 98 -c 2 -a 0 -i 7 -k MAC
r -t 1.046854687 -s 0 -d 0 -p ack -e 40 -c 2 -a 0 -i 7 -k MAC
+ -t 1.046864687 -s 0 -d -1 -p ACK -e 38 -c 2 -a 0 -i 0 -k MAC 
- -t 1.046864687 -s 0 -d -1 -p ACK -e 38 -c 2 -a 0 -i 0 -k MAC
h -t 1.046864687 -s 0 -d -1 -p ACK -e 38 -c 2 -a 0 -i 0 -k MAC
r -t 1.046879687 -s 0 -d 0 -p ack -e 40 -c 2 -a 0 -i 7 -k AGT
+ -t 1.046879687 -s 0 -d -1 -p tcp -e 1540 -c 2 -a 0 -i 8 -k AGT 
- -t 1.046879687 -s 0 -d -1 -p tcp -e 1540 -c 2 -a 0 -i 8 -k AGT
h -t 1.046879687 -s 0 -d -1 -p tcp -e 1540 -c 2 -a 0 -i 8 -k AGT
+ -t 1.046879687 -s 0 -d -1 -p tcp -e 1540 -c 2 -a 0 -i 9 -k AGT 
- -t 1.046879687 -s 0 -d -1 -p tcp -e 1540 -c 2 -a 0 -i 9 -k AGT
h -t 1.046879687 -s 0 -d -1 -p tcp -e 1540 -c 2 -a 0 -i 9 -k AGT
+ -t 1.046879687 -s 0 -d 2 -p tcp -e 1540 -c 2 -a 0 -i 8 -k RTR 
- -t 1.046879687 -s 0 -d 2 -p tcp -e 1540 -c 2 -a 0 -i 8 -k RTR
h -t 1.046879687 -s 0 -d 2 -p tcp -e 1540 -c 2 -a 0 -i 8 -k RTR
+ -t 1.046879687 -s 0 -d 2 -p tcp -e 1540 -c 2 -a 0 -i 9 -k RTR 
- -t 1.046879687 -s 0 -d 2 -p tcp -e 1540 -c 2 -a 0 -i 9 -k RTR
h -t 1.046879687 -s 0 -d 2 -p tcp -e 1540 -c 2 -a 0 -i 9 -k RTR
r -t 1.047169141 -s 2 -d -1 -p ACK -e 38 -c 2 -a 0 -i 0 -k MAC
+ -t 1.047498687 -s 0 -d -1 -p RTS -e 44 -c 2 -a 0 -i 0 -k MAC 
- -t 1.047498687 -s 0 -d -1 -p RTS -e 44 -c 2 -a 0 -i 0 -k MAC
h -t 1.047498687 -s 0 -d -1 -p RTS -e 44 -c 2 -a 0 -i 0 -k MAC
r -t 1.047851141 -s 2 -d -1 -p RTS -e 44 -c 2 -a 0 -i 0 -k MAC
+ -t 1.047861141 -s 2 -d -1 -p CTS -e 38 -c 2 -a 0 -i 0 -k MAC 
- -t 1.047861141 -s 2 -d -1 -p CTS -e 38 -c 2 -a 0 -i 0 -k MAC
h -t 1.047861141 -s 2 -d -1 -p CTS -e 38 -c 2 -a 0 -i 0 -k MAC
r -t 1.048165595 -s 0 -d -1 -p CTS -e 38 -c 2 -a 0 -i 0 -k MAC
+ -t 1.048175595 -s 0 -d 2 -p tcp -e 1598 -c 2 -a 0 -i 5 -k MAC 
- -t 1.048175595 -s 0 -d 2 -p tcp -e 1598 -c 2 -a 0 -i 5 -k MAC
h -t 1.048175595 -s 0 -d 2 -p tcp -e 1598 -c 2 -a 0 -i 5 -k MAC
r -t 1.060960049 -s 2 -d 2 -p tcp -e 1540 -c 2 -a 0 -i 5 -k MAC
+ -t 1.060970049 -s 2 -d -1 -p ACK -e 38 -c 2 -a 0 -i 0 -k MAC 
- -t 1.060970049 -s 2 -d -1 -p ACK -e 38 -c 2 -a 0 -i 0 -k MAC
h -t 1.060970049 -s 2 -d -1 -p ACK -e 38 -c 2 -a 0 -i 0 -k MAC
r -t 1.060985049 -s 2 -d 2 -p tcp -e 1540 -c 2 -a 0 -i 5 -k AGT
+ -t 1.060985049 -s 2 -d -1 -p ack -e 40 -c 2 -a 0 -i 10 -k AGT 
- -t 1.060985049 -s 2 -d -1 -p ack -e 40 -c 2 -a 0 -i 10 -k AGT
h -t 1.060985049 -s 2 -d -1 -p ack -e 40 -c 2 -a 0 -i 10 -k AGT
+ -t 1.060985049 -s 2 -d 0 -p ack -e 40 -c 2 -a 0 -i 10 -k RTR 
- -t 1.060985049 -s 2 -d 0 -p ack -e 40 -c 2 -a 0 -i 10 -k RTR
h -t 1.060985049 -s 2 -d 0 -p ack -e 40 -c 2 -a 0 -i 10 -k RTR
r -t 1.061274503 -s 0 -d -1 -p ACK -e 38 -c 2 -a 0 -i 0 -k MAC
+ -t 1.061424049 -s 2 -d -1 -p RTS -e 44 -c 2 -a 0 -i 0 -k MAC 
- -t 1.061424049 -s 2 -d -1 -p RTS -e 44 -c 2 -a 0 -i 0 -k MAC
h -t 1.061424049 -s 2 -d -1 -p RTS -e 44 -c 2 -a 0 -i 0 -k MAC
r -t 1.061776503 -s 0 -d -1 -p RTS -e 44 -c 2 -a 0 -i 0 -k MAC
+ -t 1.061786503 -s 0 -d -1 -p CTS -e 38 -c 2 -a 0 -i 0 -k MAC 
- -t 1.061786503 -s 0 -d -1 -p CTS -e 38 -c 2 -a 0 -i 0 -k MAC
h -t 1.061786503 -s 0 -d -1 -p CTS -e 38 -c 2 -a 0 -i 0 -k MAC
r -t 1.062090958 -s 2 -d -1 -p CTS -e 38 -c 2 -a 0 -i 0 -k MAC
+ -t 1.062100958 -s 2 -d 0 -p ack -e 98 -c 2 -a 0 -i 10 -k MAC 
- -t 1.062100958 -s 2 -d 0 -p ack -e 98 -c 2 -a 0 -i 10 -k MAC
h -t 1.062100958 -s 2 -d 0 -p ack -e 98 -c 2 -a 0 -i 10 -k MAC
r -t 1.062885412 -s 0 -d 0 -p ack -e 40 -c 2 -a 0 -i 10 -k MAC
+ -t 1.062895412 -s 0 -d -1 -p ACK -e 38 -c 2 -a 0 -i 0 -k MAC 
- -t 1.062895412 -s 0 -d -1 -p ACK -e 38 -c 2 -a 0 -i 0 -k MAC
h -t 1.062895412 -s 0 -d -1 -p ACK -e 38 -c 2 -a 0 -i 0 -k MAC
r -t 1.062910412 -s 0 -d 0 -p ack -e 40 -c 2 -a 0 -i 10 -k AGT
+ -t 1.062910412 -s 0 -d -1 -p tcp -e 1540 -c 2 -a 0 -i 11 -k AGT 
- -t 1.062910412 -s 0 -d -1 -p tcp -e 1540 -c 2 -a 0 -i 11 -k AGT
h -t 1.062910412 -s 0 -d -1 -p tcp -e 1540 -c 2 -a 0 -i 11 -k AGT
+ -t 1.062910412 -s 0 -d -1 -p tcp -e 1540 -c 2 -a 0 -i 12 -k AGT 
- -t 1.062910412 -s 0 -d -1 -p tcp -e 1540 -c 2 -a 0 -i 12 -k AGT
h -t 1.062910412 -s 0 -d -1 -p tcp -e 1540 -c 2 -a 0 -i 12 -k AGT
+ -t 1.062910412 -s 0 -d 2 -p tcp -e 1540 -c 2 -a 0 -i 11 -k RTR 
- -t 1.062910412 -s 0 -d 2 -p tcp -e 1540 -c 2 -a 0 -i 11 -k RTR
h -t 1.062910412 -s 0 -d 2 -p tcp -e 1540 -c 2 -a 0 -i 11 -k RTR
+ -t 1.062910412 -s 0 -d 2 -p tcp -e 1540 -c 2 -a 0 -i 12 -k RTR 
- -t 1.062910412 -s 0 -d 2 -p tcp -e 1540 -c 2 -a 0 -i 12 -k RTR
h -t 1.062910412 -s 0 -d 2 -p tcp -e 1540 -c 2 -a 0 -i 12 -k RTR
r -t 1.063199866 -s 2 -d -1 -p ACK -e 38 -c 2 -a 0 -i 0 -k MAC
+ -t 1.063634247 -s 6 -d -1 -p AODV -e 106 -c 2 -a 0 -i 0 -k MAC 
- -t 1.063634247 -s 6 -d -1 -p AODV -e 106 -c 2 -a 0 -i 0 -k MAC
h -t 1.063634247 -s 6 -d -1 -p AODV -e 106 -c 2 -a 0 -i 0 -k MAC
r -t 1.064482719 -s 4 -d -1 -p AODV -e 48 -c 2 -a 0 -i 0 -k MAC
r -t 1.064482788 -s 8 -d -1 -p AODV -e 48 -c 2 -a 0 -i 0 -k MAC
r -t 1.064482794 -s 7 -d -1 -p AODV -e 48 -c 2 -a 0 -i 0 -k MAC
r -t 1.064482818 -s 2 -d -1 -p AODV -e 48 -c 2 -a 0 -i 0 -k MAC
r -t 1.064507719 -s 4 -d -1 -p AODV -e 48 -c 2 -a 0 -i 0 -k RTR
r -t 1.064507788 -s 8 -d -1 -p AODV -e 48 -c 2 -a 0 -i 0 -k RTR
r -t 1.064507794 -s 7 -d -1 -p AODV -e 48 -c 2 -a 0 -i 0 -k RTR
r -t 1.064507818 -s 2 -d -1 -p AODV -e 48 -c 2 -a 0 -i 0 -k RTR
+ -t 1.064552719 -s 4 -d -1 -p AODV -e 106 -c 2 -a 0 -i 0 -k MAC 
- -t 1.064552719 -s 4 -d -1 -p AODV -e 106 -c 2 -a 0 -i 0 -k MAC
h -t 1.064552719 -s 4 -d -1 -p AODV -e 106 -c 2 -a 0 -i 0 -k MAC
r -t 1.065401190 -s 6 -d -1 -p AODV -e 48 -c 2 -a 0 -i 0 -k MAC
r -t 1.065401270 -s 7 -d -1 -p AODV -e 48 -c 2 -a 0 -i 0 -k MAC
r -t 1.065426190 -s 6 -d -1 -p AODV -e 48 -c 2 -a 0 -i 0 -k RTR
r -t 1.065426270 -s 7 -d -1 -p AODV -e 48 -c 2 -a 0 -i 0 -k RTR
+ -t 1.065875651 -s 0 -d -1 -p RTS -e 44 -c 2 -a 0 -i 0 -k MAC 
- -t 1.065875651 -s 0 -d -1 -p RTS -e 44 -c 2 -a 0 -i 0 -k MAC
h -t 1.065875651 -s 0 -d -1 -p RTS -e 44 -c 2 -a 0 -i 0 -k MAC
r -t 1.066228105 -s 2 -d -1 -p RTS -e 44 -c 2 -a 0 -i 0 -k MAC
+ -t 1.066238105 -s 2 -d -1 -p CTS -e 38 -c 2 -a 0 -i 0 -k MAC 
- -t 1.066238105 -s 2 -d -1 -p CTS -e 38 -c 2 -a 0 -i 0 -k MAC
h -t 1.066238105 -s 2 -d -1 -p CTS -e 38 -c 2 -a 0 -i 0 -k MAC
r -t 1.066542559 -s 0 -d -1 -p CTS -e 38 -c 2 -a 0 -i 0 -k MAC
+ -t 1.066552559 -s 0 -d 2 -p tcp -e 1598 -c 2 -a 0 -i 6 -k MAC 
- -t 1.066552559 -s 0 -d 2 -p tcp -e 1598 -c 2 -a 0 -i 6 -k MAC
h -t 1.066552559 -s 0 -d 2 -p tcp -e 1598 -c 2 -a 0 -i 6 -k MAC
r -t 1.079337014 -s 2 -d 2 -p tcp -e 1540 -c 2 -a 0 -i 6 -k MAC
+ -t 1.079347014 -s 2 -d -1 -p ACK -e 38 -c 2 -a 0 -i 0 -k MAC 
- -t 1.079347014 -s 2 -d -1 -p ACK -e 38 -c 2 -a 0 -i 0 -k MAC
h -t 1.079347014 -s 2 -d -1 -p ACK -e 38 -c 2 -a 0 -i 0 -k MAC
r -t 1.079362014 -s 2 -d 2 -p tcp -e 1540 -c 2 -a 0 -i 6 -k AGT
+ -t 1.079362014 -s 2 -d -1 -p ack -e 40 -c 2 -a 0 -i 13 -k AGT 
- -t 1.079362014 -s 2 -d -1 -p ack -e 40 -c 2 -a 0 -i 13 -k AGT
h -t 1.079362014 -s 2 -d -1 -p ack -e 40 -c 2 -a 0 -i 13 -k AGT
+ -t 1.079362014 -s 2 -d 0 -p ack -e 40 -c 2 -a 0 -i 13 -k RTR 
- -t 1.079362014 -s 2 -d 0 -p ack -e 40 -c 2 -a 0 -i 13 -k RTR
h -t 1.079362014 -s 2 -d 0 -p ack -e 40 -c 2 -a 0 -i 13 -k RTR
r -t 1.079651468 -s 0 -d -1 -p ACK -e 38 -c 2 -a 0 -i 0 -k MAC
+ -t 1.079761014 -s 2 -d -1 -p RTS -e 44 -c 2 -a 0 -i 0 -k MAC 
- -t 1.079761014 -s 2 -d -1 -p RTS -e 44 -c 2 -a 0 -i 0 -k MAC
h -t 1.079761014 -s 2 -d -1 -p RTS -e 44 -c 2 -a 0 -i 0 -k MAC
r -t 1.080113468 -s 0 -d -1 -p RTS -e 44 -c 2 -a 0 -i 0 -k MAC
+ -t 1.080123468 -s 0 -d -1 -p CTS -e 38 -c 2 -a 0 -i 0 -k MAC 
- -t 1.080123468 -s 0 -d -1 -p CTS -e 38 -c 2 -a 0 -i 0 -k MAC
h -t 1.080123468 -s 0 -d -1 -p CTS -e 38 -c 2 -a 0 -i 0 -k MAC
r -t 1.080427922 -s 2 -d -1 -p CTS -e 38 -c 2 -a 0 -i 0 -k MAC
+ -t 1.080437922 -s 2 -d 0 -p ack -e 98 -c 2 -a 0 -i 13 -k MAC 
- -t 1.080437922 -s 2 -d 0 -p ack -e 98 -c 2 -a 0 -i 13 -k MAC
h -t 1.080437922 -s 2 -d 0 -p ack -e 98 -c 2 -a 0 -i 13 -k MAC
r -t 1.081222376 -s 0 -d 0 -p ack -e 40 -c 2 -a 0 -i 13 -k MAC
+ -t 1.081232376 -s 0 -d -1 -p ACK -e 38 -c 2 -a 0 -i 0 -k MAC 
- -t 1.081232376 -s 0 -d -1 -p ACK -e 38 -c 2 -a 0 -i 0 -k MAC
h -t 1.081232376 -s 0 -d -1 -p ACK -e 38 -c 2 -a 0 -i 0 -k MAC
r -t 1.081247376 -s 0 -d 0 -p ack -e 40 -c 2 -a 0 -i 13 -k AGT
+ -t 1.081247376 -s 0 -d -1 -p tcp -e 1540 -c 2 -a 0 -i 14 -k AGT 
- -t 1.081247376 -s 0 -d -1 -p tcp -e 1540 -c 2 -a 0 -i 14 -k AGT
h -t 1.081247376 -s 0 -d -1 -p tcp -e 1540 -c 2 -a 0 -i 14 -k AGT
+ -t 1.081247376 -s 0 -d -1 -p tcp -e 1540 -c 2 -a 0 -i 15 -k AGT 
- -t 1.081247376 -s 0 -d -1 -p tcp -e 1540 -c 2 -a 0 -i 15 -k AGT
h -t 1.081247376 -s 0 -d -1 -p tcp -e 1540 -c 2 -a 0 -i 15 -k AGT
+ -t 1.081247376 -s 0 -d 2 -p tcp -e 1540 -c 2 -a 0 -i 14 -k RTR 