M 0.00000 0 (355.09, 355.17, 0.00), (257.28, 13.82), 0.67
M 0.00000 1 (203.87, 335.81, 0.00), (180.07, 111.50), 1.06
M 0.00000 2 (256.86, 258.85, 0.00), (300.98, 449.92), 0.80
M 0.00000 3 (388.02, 485.54, 0.00), (467.39, 485.32), 0.53
M 0.00000 4 (472.47, 101.36, 0.00), (481.55, 47.34), 0.66
M 0.00000 5 (228.16, 364.39, 0.00), (216.32, 377.11), 0.77
M 0.00000 6 (330.99, 106.28, 0.00), (337.19, 50.07), 1.11
M 0.00000 7 (404.57, 250.74, 0.00), (477.17, 404.66), 1.00
M 0.00000 8 (256.66, 249.96, 0.00), (325.68, 180.16), 0.57
M 0.00000 9 (56.01, 371.24, 0.00), (14.83, 361.37), 0.88
s 1.000000000 _0_ AGT  --- 0 tcp 40 [0 0 0 0] ------- [0:0 2:0 32 0] [0 0] 0 0
r 1.000000000 _0_ RTR  --- 0 tcp 40 [0 0 0 0] ------- [0:0 2:0 32 0] [0 0] 0 0
s 1.000000000 _0_ RTR  --- 0 AODV 48 [0 0 0 0] ------- [0:255 -1:255 30 0] [0x2 1 1 [2 0] [0 4]] (REQUEST)
s 1.000115000 _0_ MAC  --- 0 AODV 106 [0 ffffffff 0 800] ------- [0:255 -1:255 30 0] [0x2 1 1 [2 0] [0 4]] (REQUEST)
r 1.000963381 _7_ MAC  --- 0 AODV 48 [0 ffffffff 0 800] ------- [0:255 -1:255 30 0] [0x2 1 1 [2 0] [0 4]] (REQUEST)
r 1.000963426 _5_ MAC  --- 0 AODV 48 [0 ffffffff 0 800] ------- [0:255 -1:255 30 0] [0x2 1 1 [2 0] [0 4]] (REQUEST)
r 1.000963451 _3_ MAC  --- 0 AODV 48 [0 ffffffff 0 800] ------- [0:255 -1:255 30 0] [0x2 1 1 [2 0] [0 4]] (REQUEST)
r 1.000963454 _2_ MAC  --- 0 AODV 48 [0 ffffffff 0 800] ------- [0:255 -1:255 30 0] [0x2 1 1 [2 0] [0 4]] (REQUEST)
r 1.000963478 _8_ MAC  --- 0 AODV 48 [0 ffffffff 0 800] ------- [0:255 -1:255 30 0] [0x2 1 1 [2 0] [0 4]] (REQUEST)
r 1.000963508 _1_ MAC  --- 0 AODV 48 [0 ffffffff 0 800] ------- [0:255 -1:255 30 0] [0x2 1 1 [2 0] [0 4]] (REQUEST)
r 1.000988381 _7_ RTR  --- 0 AODV 48 [0 ffffffff 0 800] ------- [0:255 -1:255 30 0] [0x2 1 1 [2 0] [0 4]] (REQUEST)
r 1.000988426 _5_ RTR  --- 0 AODV 48 [0 ffffffff 0 800] ------- [0:255 -1:255 30 0] [0x2 1 1 [2 0] [0 4]] (REQUEST)
r 1.000988451 _3_ RTR  --- 0 AODV 48 [0 ffffffff 0 800] ------- [0:255 -1:255 30 0] [0x2 1 1 [2 0] [0 4]] (REQUEST)
r 1.000988454 _2_ RTR  --- 0 AODV 48 [0 ffffffff 0 800] ------- [0:255 -1:255 30 0] [0x2 1 1 [2 0] [0 4]] (REQUEST)
s 1.000988454 _2_ RTR  --- 0 AODV 44 [0 0 0 0] ------- [2:255 0:255 30 0] [0x4 1 [2 4] 10.000000] (REPLY)
r 1.000988478 _8_ RTR  --- 0 AODV 48 [0 ffffffff 0 800] ------- [0:255 -1:255 30 0] [0x2 1 1 [2 0] [0 4]] (REQUEST)
r 1.000988508 _1_ RTR  --- 0 AODV 48 [0 ffffffff 0 800] ------- [0:255 -1:255 30 0] [0x2 1 1 [2 0] [0 4]] (REQUEST)
s 1.001283454 _2_ MAC  --- 0 ARP 86 [0 ffffffff 2 806] ------- [REQUEST 2/2 0/0]
s 1.001869608 _7_ RTR  --- 0 AODV 48 [0 ffffffff 0 800] ------- [7:255 -1:255 29 0] [0x2 2 1 [2 0] [0 4]] (REQUEST)
r 1.001971488 _8_ MAC  --- 0 ARP 28 [0 ffffffff 2 806] ------- [REQUEST 2/2 0/0]
r 1.001971761 _1_ MAC  --- 0 ARP 28 [0 ffffffff 2 806] ------- [REQUEST 2/2 0/0]
r 1.001971819 _5_ MAC  --- 0 ARP 28 [0 ffffffff 2 806] ------- [REQUEST 2/2 0/0]
r 1.001971909 _0_ MAC  --- 0 ARP 28 [0 ffffffff 2 806] ------- [REQUEST 2/2 0/0]
r 1.001971948 _7_ MAC  --- 0 ARP 28 [0 ffffffff 2 806] ------- [REQUEST 2/2 0/0]
r 1.001972025 _6_ MAC  --- 0 ARP 28 [0 ffffffff 2 806] ------- [REQUEST 2/2 0/0]
r 1.001972223 _9_ MAC  --- 0 ARP 28 [0 ffffffff 2 806] ------- [REQUEST 2/2 0/0]
s 1.002321909 _0_ MAC  --- 0 RTS 44 [52e 2 0 0] 
r 1.002674363 _2_ MAC  --- 0 RTS 44 [52e 2 0 0] 
s 1.002684363 _2_ MAC  --- 0 CTS 38 [3f4 0 0 0] 
r 1.002988818 _0_ MAC  --- 0 CTS 38 [3f4 0 0 0] 
s 1.002998818 _0_ MAC  --- 0 ARP 86 [13a 2 0 806] ------- [REPLY 0/0 2/2]
r 1.003687272 _2_ MAC  --- 0 ARP 28 [13a 2 0 806] ------- [REPLY 0/0 2/2]
s 1.003697272 _2_ MAC  --- 0 ACK 38 [0 0 0 0] 
r 1.004001726 _0_ MAC  --- 0 ACK 38 [0 0 0 0] 
s 1.004111766 _7_ MAC  --- 0 AODV 106 [0 ffffffff 7 800] ------- [7:255 -1:255 29 0] [0x2 2 1 [2 0] [0 4]] (REQUEST)
s 1.004118096 _8_ RTR  --- 0 AODV 48 [0 ffffffff 0 800] ------- [8:255 -1:255 29 0] [0x2 2 1 [2 0] [0 4]] (REQUEST)
r 1.004960147 _0_ MAC  --- 0 AODV 48 [0 ffffffff 7 800] ------- [7:255 -1:255 29 0] [0x2 2 1 [2 0] [0 4]] (REQUEST)
r 1.004960259 _8_ MAC  --- 0 AODV 48 [0 ffffffff 7 800] ------- [7:255 -1:255 29 0] [0x2 2 1 [2 0] [0 4]] (REQUEST)
r 1.004960260 _2_ MAC  --- 0 AODV 48 [0 ffffffff 7 800] ------- [7:255 -1:255 29 0] [0x2 2 1 [2 0] [0 4]] (REQUEST)
r 1.004960313 _6_ MAC  --- 0 AODV 48 [0 ffffffff 7 800] ------- [7:255 -1:255 29 0] [0x2 2 1 [2 0] [0 4]] (REQUEST)
r 1.004960317 _4_ MAC  --- 0 AODV 48 [0 ffffffff 7 800] ------- [7:255 -1:255 29 0] [0x2 2 1 [2 0] [0 4]] (REQUEST)
r 1.004960467 _5_ MAC  --- 0 AODV 48 [0 ffffffff 7 800] ------- [7:255 -1:255 29 0] [0x2 2 1 [2 0] [0 4]] (REQUEST)
r 1.004960492 _1_ MAC  --- 0 AODV 48 [0 ffffffff 7 800] ------- [7:255 -1:255 29 0] [0x2 2 1 [2 0] [0 4]] (REQUEST)
r 1.004960547 _3_ MAC  --- 0 AODV 48 [0 ffffffff 7 800] ------- [7:255 -1:255 29 0] [0x2 2 1 [2 0] [0 4]] (REQUEST)
r 1.004985147 _0_ RTR  --- 0 AODV 48 [0 ffffffff 7 800] ------- [7:255 -1:255 29 0] [0x2 2 1 [2 0] [0 4]] (REQUEST)
r 1.004985259 _8_ RTR  --- 0 AODV 48 [0 ffffffff 7 800] ------- [7:255 -1:255 29 0] [0x2 2 1 [2 0] [0 4]] (REQUEST)
r 1.004985260 _2_ RTR  --- 0 AODV 48 [0 ffffffff 7 800] ------- [7:255 -1:255 29 0] [0x2 2 1 [2 0] [0 4]] (REQUEST)
r 1.004985313 _6_ RTR  --- 0 AODV 48 [0 ffffffff 7 800] ------- [7:255 -1:255 29 0] [0x2 2 1 [2 0] [0 4]] (REQUEST)
r 1.004985317 _4_ RTR  --- 0 AODV 48 [0 ffffffff 7 800] ------- [7:255 -1:255 29 0] [0x2 2 1 [2 0] [0 4]] (REQUEST)
r 1.004985467 _5_ RTR  --- 0 AODV 48 [0 ffffffff 7 800] ------- [7:255 -1:255 29 0] [0x2 2 1 [2 0] [0 4]] (REQUEST)
r 1.004985492 _1_ RTR  --- 0 AODV 48 [0 ffffffff 7 800] ------- [7:255 -1:255 29 0] [0x2 2 1 [2 0] [0 4]] (REQUEST)
r 1.004985547 _3_ RTR  --- 0 AODV 48 [0 ffffffff 7 800] ------- [7:255 -1:255 29 0] [0x2 2 1 [2 0] [0 4]] (REQUEST)
s 1.005190260 _2_ MAC  --- 0 RTS 44 [5ae 0 2 0] 
s 1.005400159 _5_ RTR  --- 0 AODV 48 [0 ffffffff 0 800] ------- [5:255 -1:255 29 0] [0x2 2 1 [2 0] [0 4]] (REQUEST)
r 1.005542714 _0_ MAC  --- 0 RTS 44 [5ae 0 2 0] 
s 1.005552714 _0_ MAC  --- 0 CTS 38 [474 2 0 0] 
r 1.005857169 _2_ MAC  --- 0 CTS 38 [474 2 0 0] 
s 1.005867169 _2_ MAC  --- 0 AODV 102 [13a 0 2 800] ------- [2:255 0:255 30 0] [0x4 1 [2 4] 10.000000] (REPLY)
s 1.006123395 _6_ RTR  --- 0 AODV 48 [0 ffffffff 7 800] ------- [6:255 -1:255 28 0] [0x2 3 1 [2 0] [0 4]] (REQUEST)
r 1.006683623 _0_ MAC  --- 0 AODV 44 [13a 0 2 800] ------- [2:255 0:255 30 0] [0x4 1 [2 4] 10.000000] (REPLY)
s 1.006693623 _0_ MAC  --- 0 ACK 38 [0 2 0 0] 
r 1.006708623 _0_ RTR  --- 0 AODV 44 [13a 0 2 800] ------- [2:255 0:255 30 0] [0x4 1 [2 4] 10.000000] (REPLY)
s 1.006708623 _0_ RTR  --- 0 tcp 40 [0 0 0 0] ------- [0:0 2:0 30 2] [0 0] 0 0
r 1.006998077 _2_ MAC  --- 0 ACK 38 [0 2 0 0] 
s 1.007208049 _5_ MAC  --- 0 AODV 106 [0 ffffffff 5 800] ------- [5:255 -1:255 29 0] [0x2 2 1 [2 0] [0 4]] (REQUEST)
r 1.008056177 _1_ MAC  --- 0 AODV 48 [0 ffffffff 5 800] ------- [5:255 -1:255 29 0] [0x2 2 1 [2 0] [0 4]] (REQUEST)
r 1.008056413 _2_ MAC  --- 0 AODV 48 [0 ffffffff 5 800] ------- [5:255 -1:255 29 0] [0x2 2 1 [2 0] [0 4]] (REQUEST)
r 1.008056446 _8_ MAC  --- 0 AODV 48 [0 ffffffff 5 800] ------- [5:255 -1:255 29 0] [0x2 2 1 [2 0] [0 4]] (REQUEST)
r 1.008056474 _0_ MAC  --- 0 AODV 48 [0 ffffffff 5 800] ------- [5:255 -1:255 29 0] [0x2 2 1 [2 0] [0 4]] (REQUEST)
r 1.008056624 _9_ MAC  --- 0 AODV 48 [0 ffffffff 5 800] ------- [5:255 -1:255 29 0] [0x2 2 1 [2 0] [0 4]] (REQUEST)
r 1.008056719 _3_ MAC  --- 0 AODV 48 [0 ffffffff 5 800] ------- [5:255 -1:255 29 0] [0x2 2 1 [2 0] [0 4]] (REQUEST)
r 1.008056750 _7_ MAC  --- 0 AODV 48 [0 ffffffff 5 800] ------- [5:255 -1:255 29 0] [0x2 2 1 [2 0] [0 4]] (REQUEST)
r 1.008081177 _1_ RTR  --- 0 AODV 48 [0 ffffffff 5 800] ------- [5:255 -1:255 29 0] [0x2 2 1 [2 0] [0 4]] (REQUEST)
r 1.008081413 _2_ RTR  --- 0 AODV 48 [0 ffffffff 5 800] ------- [5:255 -1:255 29 0] [0x2 2 1 [2 0] [0 4]] (REQUEST)
r 1.008081446 _8_ RTR  --- 0 AODV 48 [0 ffffffff 5 800] ------- [5:255 -1:255 29 0] [0x2 2 1 [2 0] [0 4]] (REQUEST)
r 1.008081474 _0_ RTR  --- 0 AODV 48 [0 ffffffff 5 800] ------- [5:255 -1:255 29 0] [0x2 2 1 [2 0] [0 4]] (REQUEST)
r 1.008081624 _9_ RTR  --- 0 AODV 48 [0 ffffffff 5 800] ------- [5:255 -1:255 29 0] [0x2 2 1 [2 0] [0 4]] (REQUEST)
r 1.008081719 _3_ RTR  --- 0 AODV 48 [0 ffffffff 5 800] ------- [5:255 -1:255 29 0] [0x2 2 1 [2 0] [0 4]] (REQUEST)
r 1.008081750 _7_ RTR  --- 0 AODV 48 [0 ffffffff 5 800] ------- [5:255 -1:255 29 0] [0x2 2 1 [2 0] [0 4]] (REQUEST)
s 1.008286474 _0_ MAC  --- 0 RTS 44 [58e 2 0 0] 
r 1.008638929 _2_ MAC  --- 0 RTS 44 [58e 2 0 0] 
s 1.008648929 _2_ MAC  --- 0 CTS 38 [454 0 0 0] 
r 1.008953383 _0_ MAC  --- 0 CTS 38 [454 0 0 0] 
s 1.008963383 _0_ MAC  --- 0 tcp 98 [13a 2 0 800] ------- [0:0 2:0 30 2] [0 0] 0 0
s 1.008980005 _3_ RTR  --- 0 AODV 48 [0 ffffffff 0 800] ------- [3:255 -1:255 29 0] [0x2 2 1 [2 0] [0 4]] (REQUEST)
s 1.009153269 _1_ RTR  --- 0 AODV 48 [0 ffffffff 0 800] ------- [1:255 -1:255 29 0] [0x2 2 1 [2 0] [0 4]] (REQUEST)
r 1.009747837 _2_ MAC  --- 0 tcp 40 [13a 2 0 800] ------- [0:0 2:0 30 2] [0 0] 1 0
s 1.009757837 _2_ MAC  --- 0 ACK 38 [0 0 0 0] 
r 1.009772837 _2_ AGT  --- 0 tcp 40 [13a 2 0 800] ------- [0:0 2:0 30 2] [0 0] 1 0
s 1.009772837 _2_ AGT  --- 1 ack 40 [0 0 0 0] ------- [2:0 0:0 32 0] [0 0] 0 0
r 1.009772837 _2_ RTR  --- 1 ack 40 [0 0 0 0] ------- [2:0 0:0 32 0] [0 0] 0 0
s 1.009772837 _2_ RTR  --- 1 ack 40 [0 0 0 0] ------- [2:0 0:0 30 0] [0 0] 0 0
r 1.010062292 _0_ MAC  --- 0 ACK 38 [0 0 0 0] 
s 1.010131871 _8_ MAC  --- 0 AODV 106 [0 ffffffff 8 800] ------- [8:255 -1:255 29 0] [0x2 2 1 [2 0] [0 4]] (REQUEST)
s 1.010662503 _9_ RTR  --- 0 AODV 48 [0 ffffffff 5 800] ------- [9:255 -1:255 28 0] [0x2 3 1 [2 0] [0 4]] (REQUEST)
r 1.010979905 _2_ MAC  --- 0 AODV 48 [0 ffffffff 8 800] ------- [8:255 -1:255 29 0] [0x2 2 1 [2 0] [0 4]] (REQUEST)
r 1.010980206 _1_ MAC  --- 0 AODV 48 [0 ffffffff 8 800] ------- [8:255 -1:255 29 0] [0x2 2 1 [2 0] [0 4]] (REQUEST)
r 1.010980268 _5_ MAC  --- 0 AODV 48 [0 ffffffff 8 800] ------- [8:255 -1:255 29 0] [0x2 2 1 [2 0] [0 4]] (REQUEST)
r 1.010980349 _0_ MAC  --- 0 AODV 48 [0 ffffffff 8 800] ------- [8:255 -1:255 29 0] [0x2 2 1 [2 0] [0 4]] (REQUEST)
r 1.010980364 _7_ MAC  --- 0 AODV 48 [0 ffffffff 8 800] ------- [8:255 -1:255 29 0] [0x2 2 1 [2 0] [0 4]] (REQUEST)
r 1.010980412 _6_ MAC  --- 0 AODV 48 [0 ffffffff 8 800] ------- [8:255 -1:255 29 0] [0x2 2 1 [2 0] [0 4]] (REQUEST)
r 1.010980657 _9_ MAC  --- 0 AODV 48 [0 ffffffff 8 800] ------- [8:255 -1:255 29 0] [0x2 2 1 [2 0] [0 4]] (REQUEST)
r 1.011004905 _2_ RTR  --- 0 AODV 48 [0 ffffffff 8 800] ------- [8:255 -1:255 29 0] [0x2 2 1 [2 0] [0 4]] (REQUEST)
r 1.011005206 _1_ RTR  --- 0 AODV 48 [0 ffffffff 8 800] ------- [8:255 -1:255 29 0] [0x2 2 1 [2 0] [0 4]] (REQUEST)
r 1.011005268 _5_ RTR  --- 0 AODV 48 [0 ffffffff 8 800] ------- [8:255 -1:255 29 0] [0x2 2 1 [2 0] [0 4]] (REQUEST)
r 1.011005349 _0_ RTR  --- 0 AODV 48 [0 ffffffff 8 800] ------- [8:255 -1:255 29 0] [0x2 2 1 [2 0] [0 4]] (REQUEST)
r 1.011005364 _7_ RTR  --- 0 AODV 48 [0 ffffffff 8 800] ------- [8:255 -1:255 29 0] [0x2 2 1 [2 0] [0 4]] (REQUEST)
r 1.011005412 _6_ RTR  --- 0 AODV 48 [0 ffffffff 8 800] ------- [8:255 -1:255 29 0] [0x2 2 1 [2 0] [0 4]] (REQUEST)
r 1.011005657 _9_ RTR  --- 0 AODV 48 [0 ffffffff 8 800] ------- [8:255 -1:255 29 0] [0x2 2 1 [2 0] [0 4]] (REQUEST)
s 1.011250206 _1_ MAC  --- 0 AODV 106 [0 ffffffff 1 800] ------- [1:255 -1:255 29 0] [0x2 2 1 [2 0] [0 4]] (REQUEST)
r 1.012098334 _5_ MAC  --- 0 AODV 48 [0 ffffffff 1 800] ------- [1:255 -1:255 29 0] [0x2 2 1 [2 0] [0 4]] (REQUEST)
r 1.012098513 _2_ MAC  --- 0 AODV 48 [0 ffffffff 1 800] ------- [1:255 -1:255 29 0] [0x2 2 1 [2 0] [0 4]] (REQUEST)
r 1.012098541 _8_ MAC  --- 0 AODV 48 [0 ffffffff 1 800] ------- [1:255 -1:255 29 0] [0x2 2 1 [2 0] [0 4]] (REQUEST)
r 1.012098714 _0_ MAC  --- 0 AODV 48 [0 ffffffff 1 800] ------- [1:255 -1:255 29 0] [0x2 2 1 [2 0] [0 4]] (REQUEST)
r 1.012098716 _9_ MAC  --- 0 AODV 48 [0 ffffffff 1 800] ------- [1:255 -1:255 29 0] [0x2 2 1 [2 0] [0 4]] (REQUEST)
r 1.012098932 _7_ MAC  --- 0 AODV 48 [0 ffffffff 1 800] ------- [1:255 -1:255 29 0] [0x2 2 1 [2 0] [0 4]] (REQUEST)
r 1.012099001 _3_ MAC  --- 0 AODV 48 [0 ffffffff 1 800] ------- [1:255 -1:255 29 0] [0x2 2 1 [2 0] [0 4]] (REQUEST)
r 1.012123334 _5_ RTR  --- 0 AODV 48 [0 ffffffff 1 800] ------- [1:255 -1:255 29 0] [0x2 2 1 [2 0] [0 4]] (REQUEST)
r 1.012123513 _2_ RTR  --- 0 AODV 48 [0 ffffffff 1 800] ------- [1:255 -1:255 29 0] [0x2 2 1 [2 0] [0 4]] (REQUEST)
r 1.012123541 _8_ RTR  --- 0 AODV 48 [0 ffffffff 1 800] ------- [1:255 -1:255 29 0] [0x2 2 1 [2 0] [0 4]] (REQUEST)
r 1.012123714 _0_ RTR  --- 0 AODV 48 [0 ffffffff 1 800] ------- [1:255 -1:255 29 0] [0x2 2 1 [2 0] [0 4]] (REQUEST)
r 1.012123716 _9_ RTR  --- 0 AODV 48 [0 ffffffff 1 800] ------- [1:255 -1:255 29 0] [0x2 2 1 [2 0] [0 4]] (REQUEST)
r 1.012123932 _7_ RTR  --- 0 AODV 48 [0 ffffffff 1 800] ------- [1:255 -1:255 29 0] [0x2 2 1 [2 0] [0 4]] (REQUEST)
r 1.012124001 _3_ RTR  --- 0 AODV 48 [0 ffffffff 1 800] ------- [1:255 -1:255 29 0] [0x2 2 1 [2 0] [0 4]] (REQUEST)
s 1.012169001 _3_ MAC  --- 0 AODV 106 [0 ffffffff 3 800] ------- [3:255 -1:255 29 0] [0x2 2 1 [2 0] [0 4]] (REQUEST)
r 1.013017452 _0_ MAC  --- 0 AODV 48 [0 ffffffff 3 800] ------- [3:255 -1:255 29 0] [0x2 2 1 [2 0] [0 4]] (REQUEST)
r 1.013017671 _5_ MAC  --- 0 AODV 48 [0 ffffffff 3 800] ------- [3:255 -1:255 29 0] [0x2 2 1 [2 0] [0 4]] (REQUEST)
r 1.013017783 _7_ MAC  --- 0 AODV 48 [0 ffffffff 3 800] ------- [3:255 -1:255 29 0] [0x2 2 1 [2 0] [0 4]] (REQUEST)
r 1.013017796 _1_ MAC  --- 0 AODV 48 [0 ffffffff 3 800] ------- [3:255 -1:255 29 0] [0x2 2 1 [2 0] [0 4]] (REQUEST)
r 1.013042452 _0_ RTR  --- 0 AODV 48 [0 ffffffff 3 800] ------- [3:255 -1:255 29 0] [0x2 2 1 [2 0] [0 4]] (REQUEST)
r 1.013042671 _5_ RTR  --- 0 AODV 48 [0 ffffffff 3 800] ------- [3:255 -1:255 29 0] [0x2 2 1 [2 0] [0 4]] (REQUEST)
r 1.013042783 _7_ RTR  --- 0 AODV 48 [0 ffffffff 3 800] ------- [3:255 -1:255 29 0] [0x2 2 1 [2 0] [0 4]] (REQUEST)
r 1.013042796 _1_ RTR  --- 0 AODV 48 [0 ffffffff 3 800] ------- [3:255 -1:255 29 0] [0x2 2 1 [2 0] [0 4]] (REQUEST)
s 1.013582594 _4_ RTR  --- 0 AODV 48 [0 ffffffff 7 800] ------- [4:255 -1:255 28 0] [0x2 3 1 [2 0] [0 4]] (REQUEST)
s 1.013611872 _2_ MAC  --- 0 RTS 44 [58e 0 2 0] 
r 1.013964327 _0_ MAC  --- 0 RTS 44 [58e 0 2 0] 
s 1.013974327 _0_ MAC  --- 0 CTS 38 [454 2 0 0] 
r 1.014278781 _2_ MAC  --- 0 CTS 38 [454 2 0 0] 
s 1.014288781 _2_ MAC  --- 1 ack 98 [13a 0 2 800] ------- [2:0 0:0 30 0] [0 0] 0 0
r 1.015073235 _0_ MAC  --- 1 ack 40 [13a 0 2 800] ------- [2:0 0:0 30 0] [0 0] 1 0
s 1.015083235 _0_ MAC  --- 0 ACK 38 [0 2 0 0] 
r 1.015098235 _0_ AGT  --- 1 ack 40 [13a 0 2 800] ------- [2:0 0:0 30 0] [0 0] 1 0
s 1.015098235 _0_ AGT  --- 2 tcp 1540 [0 0 0 0] ------- [0:0 2:0 32 0] [1 0] 0 0
r 1.015098235 _0_ RTR  --- 2 tcp 1540 [0 0 0 0] ------- [0:0 2:0 32 0] [1 0] 0 0
s 1.015098235 _0_ AGT  --- 3 tcp 1540 [0 0 0 0] ------- [0:0 2:0 32 0] [2 0] 0 0
r 1.015098235 _0_ RTR  --- 3 tcp 1540 [0 0 0 0] ------- [0:0 2:0 32 0] [2 0] 0 0
s 1.015098235 _0_ RTR  --- 2 tcp 1540 [0 0 0 0] ------- [0:0 2:0 30 2] [1 0] 0 0
s 1.015098235 _0_ RTR  --- 3 tcp 1540 [0 0 0 0] ------- [0:0 2:0 30 2] [2 0] 0 0
r 1.015387690 _2_ MAC  --- 0 ACK 38 [0 2 0 0] 
s 1.015737235 _0_ MAC  --- 0 RTS 44 [346e 2 0 0] 
r 1.016089690 _2_ MAC  --- 0 RTS 44 [346e 2 0 0] 
s 1.016099690 _2_ MAC  --- 0 CTS 38 [3334 0 0 0] 
r 1.016404144 _0_ MAC  --- 0 CTS 38 [3334 0 0 0] 
s 1.016414144 _0_ MAC  --- 2 tcp 1598 [13a 2 0 800] ------- [0:0 2:0 30 2] [1 0] 0 0
r 1.029198598 _2_ MAC  --- 2 tcp 1540 [13a 2 0 800] ------- [0:0 2:0 30 2] [1 0] 1 0
s 1.029208598 _2_ MAC  --- 0 ACK 38 [0 0 0 0] 
r 1.029223598 _2_ AGT  --- 2 tcp 1540 [13a 2 0 800] ------- [0:0 2:0 30 2] [1 0] 1 0
s 1.029223598 _2_ AGT  --- 4 ack 40 [0 0 0 0] ------- [2:0 0:0 32 0] [1 0] 0 0
r 1.029223598 _2_ RTR  --- 4 ack 40 [0 0 0 0] ------- [2:0 0:0 32 0] [1 0] 0 0
s 1.029223598 _2_ RTR  --- 4 ack 40 [0 0 0 0] ------- [2:0 0:0 30 0] [1 0] 0 0
r 1.029513053 _0_ MAC  --- 0 ACK 38 [0 0 0 0] 
s 1.029642598 _2_ MAC  --- 0 RTS 44 [58e 0 2 0] 
r 1.029995053 _0_ MAC  --- 0 RTS 44 [58e 0 2 0] 
s 1.030005053 _0_ MAC  --- 0 CTS 38 [454 2 0 0] 
r 1.030309507 _2_ MAC  --- 0 CTS 38 [454 2 0 0] 
s 1.030319507 _2_ MAC  --- 4 ack 98 [13a 0 2 800] ------- [2:0 0:0 30 0] [1 0] 0 0
r 1.031103961 _0_ MAC  --- 4 ack 40 [13a 0 2 800] ------- [2:0 0:0 30 0] [1 0] 1 0
s 1.031113961 _0_ MAC  --- 0 ACK 38 [0 2 0 0] 
r 1.031128961 _0_ AGT  --- 4 ack 40 [13a 0 2 800] ------- [2:0 0:0 30 0] [1 0] 1 0
s 1.031128961 _0_ AGT  --- 5 tcp 1540 [0 0 0 0] ------- [0:0 2:0 32 0] [3 0] 0 0
r 1.031128961 _0_ RTR  --- 5 tcp 1540 [0 0 0 0] ------- [0:0 2:0 32 0] [3 0] 0 0
s 1.031128961 _0_ AGT  --- 6 tcp 1540 [0 0 0 0] ------- [0:0 2:0 32 0] [4 0] 0 0
r 1.031128961 _0_ RTR  --- 6 tcp 1540 [0 0 0 0] ------- [0:0 2:0 32 0] [4 0] 0 0
s 1.031128961 _0_ RTR  --- 5 tcp 1540 [0 0 0 0] ------- [0:0 2:0 30 2] [3 0] 0 0
s 1.031128961 _0_ RTR  --- 6 tcp 1540 [0 0 0 0] ------- [0:0 2:0 30 2] [4 0] 0 0
r 1.031418415 _2_ MAC  --- 0 ACK 38 [0 2 0 0] 
s 1.031547961 _0_ MAC  --- 0 RTS 44 [346e 2 0 0] 
r 1.031900415 _2_ MAC  --- 0 RTS 44 [346e 2 0 0] 
s 1.031910415 _2_ MAC  --- 0 CTS 38 [3334 0 0 0] 
r 1.032214870 _0_ MAC  --- 0 CTS 38 [3334 0 0 0] 
s 1.032224870 _0_ MAC  --- 3 tcp 1598 [13a 2 0 800] ------- [0:0 2:0 30 2] [2 0] 0 0
r 1.045009324 _2_ MAC  --- 3 tcp 1540 [13a 2 0 800] ------- [0:0 2:0 30 2] [2 0] 1 0
s 1.045019324 _2_ MAC  --- 0 ACK 38 [0 0 0 0] 
r 1.045034324 _2_ AGT  --- 3 tcp 1540 [13a 2 0 800] ------- [0:0 2:0 30 2] [2 0] 1 0
s 1.045034324 _2_ AGT  --- 7 ack 40 [0 0 0 0] ------- [2:0 0:0 32 0] [2 0] 0 0
r 1.045034324 _2_ RTR  --- 7 ack 40 [0 0 0 0] ------- [2:0 0:0 32 0] [2 0] 0 0
s 1.045034324 _2_ RTR  --- 7 ack 40 [0 0 0 0] ------- [2:0 0:0 30 0] [2 0] 0 0
r 1.045323778 _0_ MAC  --- 0 ACK 38 [0 0 0 0] 
s 1.045393324 _2_ MAC  --- 0 RTS 44 [58e 0 2 0] 
r 1.045745778 _0_ MAC  --- 0 RTS 44 [58e 0 2 0] 
s 1.045755778 _0_ MAC  --- 0 CTS 38 [454 2 0 0] 
r 1.046060232 _2_ MAC  --- 0 CTS 38 [454 2 0 0] 
s 1.046070232 _2_ MAC  --- 7 ack 98 [13a 0 2 800] ------- [2:0 0:0 30 0] [2 0] 0 0
r 1.046854687 _0_ MAC  --- 7 ack 40 [13a 0 2 800] ------- [2:0 0:0 30 0] [2 0] 1 0
s 1.046864687 _0_ MAC  --- 0 ACK 38 [0 2 0 0] 
r 1.046879687 _0_ AGT  --- 7 ack 40 [13a 0 2 800] ------- [2:0 0:0 30 0] [2 0] 1 0
s 1.046879687 _0_ AGT  --- 8 tcp 1540 [0 0 0 0] ------- [0:0 2:0 32 0] [5 0] 0 0
r 1.046879687 _0_ RTR  --- 8 tcp 1540 [0 0 0 0] ------- [0:0 2:0 32 0] [5 0] 0 0
s 1.046879687 _0_ AGT  --- 9 tcp 1540 [0 0 0 0] ------- [0:0 2:0 32 0] [6 0] 0 0
r 1.046879687 _0_ RTR  --- 9 tcp 1540 [0 0 0 0] ------- [0:0 2:0 32 0] [6 0] 0 0
s 1.046879687 _0_ RTR  --- 8 tcp 1540 [0 0 0 0] ------- [0:0 2:0 30 2] [5 0] 0 0
s 1.046879687 _0_ RTR  --- 9 tcp 1540 [0 0 0 0] ------- [0:0 2:0 30 2] [6 0] 0 0
r 1.047169141 _2_ MAC  --- 0 ACK 38 [0 2 0 0] 
s 1.047498687 _0_ MAC  --- 0 RTS 44 [346e 2 0 0] 
r 1.047851141 _2_ MAC  --- 0 RTS 44 [346e 2 0 0] 
s 1.047861141 _2_ MAC  --- 0 CTS 38 [3334 0 0 0] 
r 1.048165595 _0_ MAC  --- 0 CTS 38 [3334 0 0 0] 
s 1.048175595 _0_ MAC  --- 5 tcp 1598 [13a 2 0 800] ------- [0:0 2:0 30 2] [3 0] 0 0
r 1.060960049 _2_ MAC  --- 5 tcp 1540 [13a 2 0 800] ------- [0:0 2:0 30 2] [3 0] 1 0
s 1.060970049 _2_ MAC  --- 0 ACK 38 [0 0 0 0] 
r 1.060985049 _2_ AGT  --- 5 tcp 1540 [13a 2 0 800] ------- [0:0 2:0 30 2] [3 0] 1 0
s 1.060985049 _2_ AGT  --- 10 ack 40 [0 0 0 0] ------- [2:0 0:0 32 0] [3 0] 0 0
r 1.060985049 _2_ RTR  --- 10 ack 40 [0 0 0 0] ------- [2:0 0:0 32 0] [3 0] 0 0
s 1.060985049 _2_ RTR  --- 10 ack 40 [0 0 0 0] ------- [2:0 0:0 30 0] [3 0] 0 0
r 1.061274503 _0_ MAC  --- 0 ACK 38 [0 0 0 0] 
s 1.061424049 _2_ MAC  --- 0 RTS 44 [58e 0 2 0] 
r 1.061776503 _0_ MAC  --- 0 RTS 44 [58e 0 2 0] 
s 1.061786503 _0_ MAC  --- 0 CTS 38 [454 2 0 0] 
r 1.062090958 _2_ MAC  --- 0 CTS 38 [454 2 0 0] 
s 1.062100958 _2_ MAC  --- 10 ack 98 [13a 0 2 800] ------- [2:0 0:0 30 0] [3 0] 0 0
r 1.062885412 _0_ MAC  --- 10 ack 40 [13a 0 2 800] ------- [2:0 0:0 30 0] [3 0] 1 0
s 1.062895412 _0_ MAC  --- 0 ACK 38 [0 2 0 0] 
r 1.062910412 _0_ AGT  --- 10 ack 40 [13a 0 2 800] ------- [2:0 0:0 30 0] [3 0] 1 0
s 1.062910412 _0_ AGT  --- 11 tcp 1540 [0 0 0 0] ------- [0:0 2:0 32 0] [7 0] 0 0
r 1.062910412 _0_ RTR  --- 11 tcp 1540 [0 0 0 0] ------- [0:0 2:0 32 0] [7 0] 0 0
s 1.062910412 _0_ AGT  --- 12 tcp 1540 [0 0 0 0] ------- [0:0 2:0 32 0] [8 0] 0 0
r 1.062910412 _0_ RTR  --- 12 tcp 1540 [0 0 0 0] ------- [0:0 2:0 32 0] [8 0] 0 0
s 1.062910412 _0_ RTR  --- 11 tcp 1540 [0 0 0 0] ------- [0:0 2:0 30 2] [7 0] 0 0
s 1.062910412 _0_ RTR  --- 12 tcp 1540 [0 0 0 0] ------- [0:0 2:0 30 2] [8 0] 0 0
r 1.063199866 _2_ MAC  --- 0 ACK 38 [0 2 0 0] 
s 1.063634247 _6_ MAC  --- 0 AODV 106 [0 ffffffff 6 800] ------- [6:255 -1:255 28 0] [0x2 3 1 [2 0] [0 4]] (REQUEST)
r 1.064482719 _4_ MAC  --- 0 AODV 48 [0 ffffffff 6 800] ------- [6:255 -1:255 28 0] [0x2 3 1 [2 0] [0 4]] (REQUEST)
r 1.064482788 _8_ MAC  --- 0 AODV 48 [0 ffffffff 6 800] ------- [6:255 -1:255 28 0] [0x2 3 1 [2 0] [0 4]] (REQUEST)
r 1.064482794 _7_ MAC  --- 0 AODV 48 [0 ffffffff 6 800] ------- [6:255 -1:255 28 0] [0x2 3 1 [2 0] [0 4]] (REQUEST)
r 1.064482818 _2_ MAC  --- 0 AODV 48 [0 ffffffff 6 800] ------- [6:255 -1:255 28 0] [0x2 3 1 [2 0] [0 4]] (REQUEST)
r 1.064507719 _4_ RTR  --- 0 AODV 48 [0 ffffffff 6 800] ------- [6:255 -1:255 28 0] [0x2 3 1 [2 0] [0 4]] (REQUEST)
r 1.064507788 _8_ RTR  --- 0 AODV 48 [0 ffffffff 6 800] ------- [6:255 -1:255 28 0] [0x2 3 1 [2 0] [0 4]] (REQUEST)
r 1.064507794 _7_ RTR  --- 0 AODV 48 [0 ffffffff 6 800] ------- [6:255 -1:255 28 0] [0x2 3 1 [2 0] [0 4]] (REQUEST)
r 1.064507818 _2_ RTR  --- 0 AODV 48 [0 ffffffff 6 800] ------- [6:255 -1:255 28 0] [0x2 3 1 [2 0] [0 4]] (REQUEST)
s 1.064552719 _4_ MAC  --- 0 AODV 106 [0 ffffffff 4 800] ------- [4:255 -1:255 28 0] [0x2 3 1 [2 0] [0 4]] (REQUEST)
r 1.065401190 _6_ MAC  --- 0 AODV 48 [0 ffffffff 4 800] ------- [4:255 -1:255 28 0] [0x2 3 1 [2 0] [0 4]] (REQUEST)
r 1.065401270 _7_ MAC  --- 0 AODV 48 [0 ffffffff 4 800] ------- [4:255 -1:255 28 0] [0x2 3 1 [2 0] [0 4]] (REQUEST)
r 1.065426190 _6_ RTR  --- 0 AODV 48 [0 ffffffff 4 800] ------- [4:255 -1:255 28 0] [0x2 3 1 [2 0] [0 4]] (REQUEST)
r 1.065426270 _7_ RTR  --- 0 AODV 48 [0 ffffffff 4 800] ------- [4:255 -1:255 28 0] [0x2 3 1 [2 0] [0 4]] (REQUEST)
s 1.065875651 _0_ MAC  --- 0 RTS 44 [346e 2 0 0] 
r 1.066228105 _2_ MAC  --- 0 RTS 44 [346e 2 0 0] 
s 1.066238105 _2_ MAC  --- 0 CTS 38 [3334 0 0 0] 
r 1.066542559 _0_ MAC  --- 0 CTS 38 [3334 0 0 0] 
s 1.066552559 _0_ MAC  --- 6 tcp 1598 [13a 2 0 800] ------- [0:0 2:0 30 2] [4 0] 0 0
r 1.079337014 _2_ MAC  --- 6 tcp 1540 [13a 2 0 800] ------- [0:0 2:0 30 2] [4 0] 1 0
s 1.079347014 _2_ MAC  --- 0 ACK 38 [0 0 0 0] 
r 1.079362014 _2_ AGT  --- 6 tcp 1540 [13a 2 0 800] ------- [0:0 2:0 30 2] [4 0] 1 0
s 1.079362014 _2_ AGT  --- 13 ack 40 [0 0 0 0] ------- [2:0 0:0 32 0] [4 0] 0 0
r 1.079362014 _2_ RTR  --- 13 ack 40 [0 0 0 0] ------- [2:0 0:0 32 0] [4 0] 0 0
s 1.079362014 _2_ RTR  --- 13 ack 40 [0 0 0 0] ------- [2:0 0:0 30 0] [4 0] 0 0
r 1.079651468 _0_ MAC  --- 0 ACK 38 [0 0 0 0] 
s 1.079761014 _2_ MAC  --- 0 RTS 44 [58e 0 2 0] 
r 1.080113468 _0_ MAC  --- 0 RTS 44 [58e 0 2 0] 
s 1.080123468 _0_ MAC  --- 0 CTS 38 [454 2 0 0] 
r 1.080427922 _2_ MAC  --- 0 CTS 38 [454 2 0 0] 
s 1.080437922 _2_ MAC  --- 13 ack 98 [13a 0 2 800] ------- [2:0 0:0 30 0] [4 0] 0 0
r 1.081222376 _0_ MAC  --- 13 ack 40 [13a 0 2 800] ------- [2:0 0:0 30 0] [4 0] 1 0
s 1.081232376 _0_ MAC  --- 0 ACK 38 [0 2 0 0] 
r 1.081247376 _0_ AGT  --- 13 ack 40 [13a 0 2 800] ------- [2:0 0:0 30 0] [4 0] 1 0
s 1.081247376 _0_ AGT  --- 14 tcp 1540 [0 0 0 0] ------- [0:0 2:0 32 0] [9 0] 0 0
r 1.081247376 _0_ RTR  --- 14 tcp 1540 [0 0 0 0] ------- [0:0 2:0 32 0] [9 0] 0 0
s 1.081247376 _0_ AGT  --- 15 tcp 1540 [0 0 0 0] ------- [0:0 2:0 32 0] [10 0] 0 0
r 1.081247376 _0_ RTR  --- 15 tcp 1540 [0 0 0 0] ------- [0:0 2:0 32 0] [10 0] 0 0
s 1.081247376 _0_ RTR  --- 14 tcp 1540 [0 0 0 0] ------- [0:0 2:0 30 2] [9 0] 0 0
s 1.081247376 _0_ RTR  --- 15 tcp 1540 [0 0 0 0] ------- [0:0 2:0 30 2] [10 0] 0 0
r 1.081536830 _2_ MAC  --- 0 ACK 38 [0 2 0 0] 
s 1.081666376 _0_ MAC  --- 0 RTS 44 [346e 2 0 0] 
r 1.082018830 _2_ MAC  --- 0 RTS 44 [346e 2 0 0] 
s 1.082028830 _2_ MAC  --- 0 CTS 38 [3334 0 0 0] 
r 1.082333284 _0_ MAC  --- 0 CTS 38 [3334 0 0 0] 
s 1.082343284 _0_ MAC  --- 8 tcp 1598 [13a 2 0 800] ------- [0:0 2:0 30 2] [5 0] 0 0
r 1.095127738 _2_ MAC  --- 8 tcp 1540 [13a 2 0 800] ------- [0:0 2:0 30 2] [5 0] 1 0
s 1.095137738 _2_ MAC  --- 0 ACK 38 [0 0 0 0] 
r 1.095152738 _2_ AGT  --- 8 tcp 1540 [13a 2 0 800] ------- [0:0 2:0 30 2] [5 0] 1 0
s 1.095152738 _2_ AGT  --- 16 ack 40 [0 0 0 0] ------- [2:0 0:0 32 0] [5 0] 0 0
r 1.095152738 _2_ RTR  --- 16 ack 40 [0 0 0 0] ------- [2:0 0:0 32 0] [5 0] 0 0
s 1.095152738 _2_ RTR  --- 16 ack 40 [0 0 0 0] ------- [2:0 0:0 30 0] [5 0] 0 0
r 1.095442192 _0_ MAC  --- 0 ACK 38 [0 0 0 0] 
s 1.095562285 _9_ MAC  --- 0 AODV 106 [0 ffffffff 9 800] ------- [9:255 -1:255 28 0] [0x2 3 1 [2 0] [0 4]] (REQUEST)
r 1.096410795 _1_ MAC  --- 0 AODV 48 [0 ffffffff 9 800] ------- [9:255 -1:255 28 0] [0x2 3 1 [2 0] [0 4]] (REQUEST)
r 1.096410860 _5_ MAC  --- 0 AODV 48 [0 ffffffff 9 800] ------- [9:255 -1:255 28 0] [0x2 3 1 [2 0] [0 4]] (REQUEST)
r 1.096411053 _2_ MAC  --- 0 AODV 48 [0 ffffffff 9 800] ------- [9:255 -1:255 28 0] [0x2 3 1 [2 0] [0 4]] (REQUEST)
r 1.096411071 _8_ MAC  --- 0 AODV 48 [0 ffffffff 9 800] ------- [9:255 -1:255 28 0] [0x2 3 1 [2 0] [0 4]] (REQUEST)
r 1.096435795 _1_ RTR  --- 0 AODV 48 [0 ffffffff 9 800] ------- [9:255 -1:255 28 0] [0x2 3 1 [2 0] [0 4]] (REQUEST)
r 1.096435860 _5_ RTR  --- 0 AODV 48 [0 ffffffff 9 800] ------- [9:255 -1:255 28 0] [0x2 3 1 [2 0] [0 4]] (REQUEST)
r 1.096436053 _2_ RTR  --- 0 AODV 48 [0 ffffffff 9 800] ------- [9:255 -1:255 28 0] [0x2 3 1 [2 0] [0 4]] (REQUEST)
r 1.096436071 _8_ RTR  --- 0 AODV 48 [0 ffffffff 9 800] ------- [9:255 -1:255 28 0] [0x2 3 1 [2 0] [0 4]] (REQUEST)
s 1.096681053 _2_ MAC  --- 0 RTS 44 [58e 0 2 0] 
r 1.097033507 _0_ MAC  --- 0 RTS 44 [58e 0 2 0] 
s 1.097043507 _0_ MAC  --- 0 CTS 38 [454 2 0 0] 
r 1.097347961 _2_ MAC  --- 0 CTS 38 [454 2 0 0] 
s 1.097357961 _2_ MAC  --- 16 ack 98 [13a 0 2 800] ------- [2:0 0:0 30 0] [5 0] 0 0
r 1.098142415 _0_ MAC  --- 16 ack 40 [13a 0 2 800] ------- [2:0 0:0 30 0] [5 0] 1 0
s 1.098152415 _0_ MAC  --- 0 ACK 38 [0 2 0 0] 
r 1.098167415 _0_ AGT  --- 16 ack 40 [13a 0 2 800] ------- [2:0 0:0 30 0] [5 0] 1 0
s 1.098167415 _0_ AGT  --- 17 tcp 1540 [0 0 0 0] ------- [0:0 2:0 32 0] [11 0] 0 0
r 1.098167415 _0_ RTR  --- 17 tcp 1540 [0 0 0 0] ------- [0:0 2:0 32 0] [11 0] 0 0
s 1.098167415 _0_ AGT  --- 18 tcp 1540 [0 0 0 0] ------- [0:0 2:0 32 0] [12 0] 0 0
r 1.098167415 _0_ RTR  --- 18 tcp 1540 [0 0 0 0] ------- [0:0 2:0 32 0] [12 0] 0 0
s 1.098167415 _0_ RTR  --- 17 tcp 1540 [0 0 0 0] ------- [0:0 2:0 30 2] [11 0] 0 0
s 1.098167415 _0_ RTR  --- 18 tcp 1540 [0 0 0 0] ------- [0:0 2:0 30 2] [12 0] 0 0
r 1.098456869 _2_ MAC  --- 0 ACK 38 [0 2 0 0] 
s 1.098946415 _0_ MAC  --- 0 RTS 44 [346e 2 0 0] 
r 1.099298869 _2_ MAC  --- 0 RTS 44 [346e 2 0 0] 
s 1.099308869 _2_ MAC  --- 0 CTS 38 [3334 0 0 0] 
r 1.099613323 _0_ MAC  --- 0 CTS 38 [3334 0 0 0] 
s 1.099623323 _0_ MAC  --- 9 tcp 1598 [13a 2 0 800] ------- [0:0 2:0 30 2] [6 0] 0 0
r 1.112407777 _2_ MAC  --- 9 tcp 1540 [13a 2 0 800] ------- [0:0 2:0 30 2] [6 0] 1 0
s 1.112417777 _2_ MAC  --- 0 ACK 38 [0 0 0 0] 
r 1.112432777 _2_ AGT  --- 9 tcp 1540 [13a 2 0 800] ------- [0:0 2:0 30 2] [6 0] 1 0
s 1.112432777 _2_ AGT  --- 19 ack 40 [0 0 0 0] ------- [2:0 0:0 32 0] [6 0] 0 0
r 1.112432777 _2_ RTR  --- 19 ack 40 [0 0 0 0] ------- [2:0 0:0 32 0] [6 0] 0 0
s 1.112432777 _2_ RTR  --- 19 ack 40 [0 0 0 0] ------- [2:0 0:0 30 0] [6 0] 0 0
r 1.112722231 _0_ MAC  --- 0 ACK 38 [0 0 0 0] 
s 1.113051777 _2_ MAC  --- 0 RTS 44 [58e 0 2 0] 
r 1.113404231 _0_ MAC  --- 0 RTS 44 [58e 0 2 0] 
s 1.113414231 _0_ MAC  --- 0 CTS 38 [454 2 0 0] 
r 1.113718685 _2_ MAC  --- 0 CTS 38 [454 2 0 0] 
s 1.113728685 _2_ MAC  --- 19 ack 98 [13a 0 2 800] ------- [2:0 0:0 30 0] [6 0] 0 0
r 1.114513139 _0_ MAC  --- 19 ack 40 [13a 0 2 800] ------- [2:0 0:0 30 0] [6 0] 1 0
s 1.114523139 _0_ MAC  --- 0 ACK 38 [0 2 0 0] 
r 1.114538139 _0_ AGT  --- 19 ack 40 [13a 0 2 800] ------- [2:0 0:0 30 0] [6 0] 1 0
s 1.114538139 _0_ AGT  --- 20 tcp 1540 [0 0 0 0] ------- [0:0 2:0 32 0] [13 0] 0 0
r 1.114538139 _0_ RTR  --- 20 tcp 1540 [0 0 0 0] ------- [0:0 2:0 32 0] [13 0] 0 0
s 1.114538139 _0_ AGT  --- 21 tcp 1540 [0 0 0 0] ------- [0:0 2:0 32 0] [14 0] 0 0
r 1.114538139 _0_ RTR  --- 21 tcp 1540 [0 0 0 0] ------- [0:0 2:0 32 0] [14 0] 0 0
s 1.114538139 _0_ RTR  --- 20 tcp 1540 [0 0 0 0] ------- [0:0 2:0 30 2] [13 0] 0 0
s 1.114538139 _0_ RTR  --- 21 tcp 1540 [0 0 0 0] ------- [0:0 2:0 30 2] [14 0] 0 0
r 1.114827593 _2_ MAC  --- 0 ACK 38 [0 2 0 0] 
s 1.115097139 _0_ MAC  --- 0 RTS 44 [346e 2 0 0] 
r 1.115449593 _2_ MAC  --- 0 RTS 44 [346e 2 0 0] 
s 1.115459593 _2_ MAC  --- 0 CTS 38 [3334 0 0 0] 
r 1.115764047 _0_ MAC  --- 0 CTS 38 [3334 0 0 0] 
s 1.115774047 _0_ MAC  --- 11 tcp 1598 [13a 2 0 800] ------- [0:0 2:0 30 2] [7 0] 0 0
r 1.128558501 _2_ MAC  --- 11 tcp 1540 [13a 2 0 800] ------- [0:0 2:0 30 2] [7 0] 1 0
s 1.128568501 _2_ MAC  --- 0 ACK 38 [0 0 0 0] 
r 1.128583501 _2_ AGT  --- 11 tcp 1540 [13a 2 0 800] ------- [0:0 2:0 30 2] [7 0] 1 0
s 1.128583501 _2_ AGT  --- 22 ack 40 [0 0 0 0] ------- [2:0 0:0 32 0] [7 0] 0 0
r 1.128583501 _2_ RTR  --- 22 ack 40 [0 0 0 0] ------- [2:0 0:0 32 0] [7 0] 0 0
s 1.128583501 _2_ RTR  --- 22 ack 40 [0 0 0 0] ------- [2:0 0:0 30 0] [7 0] 0 0
r 1.128872955 _0_ MAC  --- 0 ACK 38 [0 0 0 0] 
s 1.129142501 _2_ MAC  --- 0 RTS 44 [58e 0 2 0] 
r 1.129494955 _0_ MAC  --- 0 RTS 44 [58e 0 2 0] 
s 1.129504955 _0_ MAC  --- 0 CTS 38 [454 2 0 0] 
r 1.129809409 _2_ MAC  --- 0 CTS 38 [454 2 0 0] 
s 1.129819409 _2_ MAC  --- 22 ack 98 [13a 0 2 800] ------- [2:0 0:0 30 0] [7 0] 0 0
r 1.130603863 _0_ MAC  --- 22 ack 40 [13a 0 2 800] ------- [2:0 0:0 30 0] [7 0] 1 0